
     Program PROJWFC v.6.5 starts on 26Jun2020 at 17:36:20 

     This program is part of the open-source Quantum ESPRESSO suite
     for quantum simulation of materials; please cite
         "P. Giannozzi et al., J. Phys.:Condens. Matter 21 395502 (2009);
         "P. Giannozzi et al., J. Phys.:Condens. Matter 29 465901 (2017);
          URL http://www.quantum-espresso.org", 
     in publications or presentations arising from this work. More details at
     http://www.quantum-espresso.org/quote

     Serial version

     Reading xml data from directory:

     ./LiF.save/

     IMPORTANT: XC functional enforced from input :
     Exchange-correlation= PBE
                           (   1   4   3   4   0   0   0)
     Any further DFT definition will be discarded
     Please, verify this is what you really want

               file F.pbe-n-kjpaw_psl.1.0.0.UPF: wavefunction(s)  2S 2P renormalized

     G-vector sticks info
     --------------------
     sticks:   dense  smooth     PW     G-vecs:    dense   smooth      PW
     Sum        2563     199     73                85851     1917     411

     Generating pointlists ...
     new r_m :   0.2917 (alat units)  1.5915 (a.u.) for type    1
     new r_m :   0.2917 (alat units)  1.5915 (a.u.) for type    2

     Gaussian broadening (read from input): ngauss,degauss=   0    0.036748


     Calling projwave .... 

  Problem Sizes 
  natomwfc =            9
  nbnd     =            9
  nkstot   =          364
  npwx     =          262
  nkb      =           16


     Atomic states used for projection
     (read from pseudopotential files):

     state #   1: atom   1 (Li ), wfc  1 (l=0 m= 1)
     state #   2: atom   1 (Li ), wfc  2 (l=0 m= 1)
     state #   3: atom   1 (Li ), wfc  3 (l=1 m= 1)
     state #   4: atom   1 (Li ), wfc  3 (l=1 m= 2)
     state #   5: atom   1 (Li ), wfc  3 (l=1 m= 3)
     state #   6: atom   2 (F  ), wfc  1 (l=0 m= 1)
     state #   7: atom   2 (F  ), wfc  2 (l=1 m= 1)
     state #   8: atom   2 (F  ), wfc  2 (l=1 m= 2)
     state #   9: atom   2 (F  ), wfc  2 (l=1 m= 3)

 k =   0.0000000000  0.0000000000  0.0000000000
==== e(   1) =   -41.37031 eV ==== 
     psi = 0.917*[#   1]+0.082*[#   2]
    |psi|^2 = 0.999
==== e(   2) =   -19.80380 eV ==== 
     psi = 0.709*[#   6]+0.270*[#   2]+0.021*[#   1]
    |psi|^2 = 1.000
==== e(   3) =     0.35002 eV ==== 
     psi = 0.529*[#   7]+0.300*[#   8]+0.169*[#   9]
    |psi|^2 = 0.998
==== e(   4) =     0.35002 eV ==== 
     psi = 0.601*[#   8]+0.330*[#   9]+0.067*[#   7]
    |psi|^2 = 0.998
==== e(   5) =     0.35002 eV ==== 
     psi = 0.499*[#   9]+0.402*[#   7]+0.097*[#   8]
    |psi|^2 = 0.998
==== e(   6) =     9.63476 eV ==== 
     psi = 0.646*[#   2]+0.289*[#   6]+0.061*[#   1]
    |psi|^2 = 0.996
==== e(   7) =    23.88627 eV ==== 
     psi = 0.441*[#   3]+0.313*[#   4]+0.006*[#   5]
    |psi|^2 = 0.762
==== e(   8) =    23.88627 eV ==== 
     psi = 0.669*[#   5]+0.060*[#   3]+0.031*[#   4]
    |psi|^2 = 0.762
==== e(   9) =    23.88627 eV ==== 
     psi = 0.416*[#   4]+0.259*[#   3]+0.085*[#   5]
    |psi|^2 = 0.762

 k =   0.0096225045 -0.0136082763  0.0166666667
==== e(   1) =   -41.36985 eV ==== 
     psi = 0.916*[#   1]+0.079*[#   2]+0.002*[#   3]+0.001*[#   5]
    |psi|^2 = 0.999
==== e(   2) =   -19.80252 eV ==== 
     psi = 0.709*[#   6]+0.267*[#   2]+0.021*[#   1]+0.002*[#   3]+0.001*[#   5]
          
    |psi|^2 = 1.000
==== e(   3) =     0.34421 eV ==== 
     psi = 0.499*[#   7]+0.332*[#   9]+0.166*[#   8]
    |psi|^2 = 0.998
==== e(   4) =     0.34757 eV ==== 
     psi = 0.633*[#   9]+0.357*[#   7]+0.008*[#   8]
    |psi|^2 = 0.998
==== e(   5) =     0.34757 eV ==== 
     psi = 0.823*[#   8]+0.142*[#   7]+0.032*[#   9]
    |psi|^2 = 0.998
==== e(   6) =     9.64492 eV ==== 
     psi = 0.637*[#   2]+0.289*[#   6]+0.061*[#   1]+0.004*[#   3]+0.003*[#   5]
          +0.001*[#   4]
    |psi|^2 = 0.996
==== e(   7) =    23.71485 eV ==== 
     psi = 0.438*[#   5]+0.124*[#   3]+0.107*[#   4]
    |psi|^2 = 0.669
==== e(   8) =    23.71485 eV ==== 
     psi = 0.450*[#   4]+0.211*[#   3]+0.008*[#   5]
    |psi|^2 = 0.669
==== e(   9) =    23.84380 eV ==== 
     psi = 0.369*[#   3]+0.246*[#   5]+0.123*[#   4]+0.011*[#   2]
    |psi|^2 = 0.751

 k =   0.0192450090 -0.0272165527  0.0333333333
==== e(   1) =   -41.36846 eV ==== 
     psi = 0.913*[#   1]+0.071*[#   2]+0.008*[#   3]+0.005*[#   5]+0.003*[#   4]
          
    |psi|^2 = 0.999
==== e(   2) =   -19.79866 eV ==== 
     psi = 0.709*[#   6]+0.257*[#   2]+0.021*[#   1]+0.007*[#   3]+0.004*[#   5]
          +0.002*[#   4]
    |psi|^2 = 1.000
==== e(   3) =     0.32679 eV ==== 
     psi = 0.497*[#   7]+0.331*[#   9]+0.166*[#   8]+0.003*[#   2]
    |psi|^2 = 0.999
==== e(   4) =     0.34025 eV ==== 
     psi = 0.633*[#   9]+0.357*[#   7]+0.008*[#   8]
    |psi|^2 = 0.999
==== e(   5) =     0.34025 eV ==== 
     psi = 0.823*[#   8]+0.142*[#   7]+0.032*[#   9]
    |psi|^2 = 0.999
==== e(   6) =     9.67535 eV ==== 
     psi = 0.612*[#   2]+0.289*[#   6]+0.061*[#   1]+0.015*[#   3]+0.010*[#   5]
          +0.005*[#   4]+0.002*[#   7]+0.001*[#   9]
    |psi|^2 = 0.996
==== e(   7) =    23.40773 eV ==== 
     psi = 0.352*[#   5]+0.235*[#   4]+0.042*[#   3]
    |psi|^2 = 0.631
==== e(   8) =    23.40773 eV ==== 
     psi = 0.289*[#   4]+0.272*[#   3]+0.068*[#   5]
    |psi|^2 = 0.631
==== e(   9) =    23.72092 eV ==== 
     psi = 0.339*[#   3]+0.226*[#   5]+0.113*[#   4]+0.041*[#   2]+0.003*[#   1]
          
    |psi|^2 = 0.723

 k =   0.0288675135 -0.0408248290  0.0500000000
==== e(   1) =   -41.36616 eV ==== 
     psi = 0.907*[#   1]+0.060*[#   2]+0.016*[#   3]+0.011*[#   5]+0.005*[#   4]
          
    |psi|^2 = 0.999
==== e(   2) =   -19.79224 eV ==== 
     psi = 0.709*[#   6]+0.243*[#   2]+0.021*[#   1]+0.014*[#   3]+0.009*[#   5]
          +0.005*[#   4]
    |psi|^2 = 1.000
==== e(   3) =     0.29781 eV ==== 
     psi = 0.495*[#   7]+0.330*[#   9]+0.165*[#   8]+0.006*[#   2]+0.002*[#   6]
          
    |psi|^2 = 0.999
==== e(   4) =     0.32815 eV ==== 
     psi = 0.633*[#   9]+0.357*[#   7]+0.008*[#   8]
    |psi|^2 = 0.999
==== e(   5) =     0.32815 eV ==== 
     psi = 0.823*[#   8]+0.142*[#   7]+0.032*[#   9]
    |psi|^2 = 0.999
==== e(   6) =     9.72596 eV ==== 
     psi = 0.574*[#   2]+0.287*[#   6]+0.062*[#   1]+0.032*[#   3]+0.021*[#   5]
          +0.011*[#   4]+0.004*[#   7]+0.003*[#   9]+0.001*[#   8]
    |psi|^2 = 0.996
==== e(   7) =    23.09018 eV ==== 
     psi = 0.331*[#   4]+0.298*[#   5]+0.014*[#   3]
    |psi|^2 = 0.643
==== e(   8) =    23.09018 eV ==== 
     psi = 0.307*[#   3]+0.204*[#   4]+0.130*[#   5]
    |psi|^2 = 0.643
==== e(   9) =    23.52957 eV ==== 
     psi = 0.298*[#   3]+0.199*[#   5]+0.099*[#   4]+0.082*[#   2]+0.005*[#   1]
          
    |psi|^2 = 0.684

 k =   0.0384900179 -0.0544331054  0.0666666667
==== e(   1) =   -41.36295 eV ==== 
     psi = 0.901*[#   1]+0.048*[#   2]+0.025*[#   3]+0.017*[#   5]+0.008*[#   4]
          
    |psi|^2 = 0.999
==== e(   2) =   -19.78327 eV ==== 
     psi = 0.709*[#   6]+0.225*[#   2]+0.023*[#   3]+0.021*[#   1]+0.015*[#   5]
          +0.008*[#   4]
    |psi|^2 = 1.000
==== e(   3) =     0.25735 eV ==== 
     psi = 0.492*[#   7]+0.328*[#   9]+0.164*[#   8]+0.010*[#   2]+0.004*[#   6]
          +0.001*[#   1]
    |psi|^2 = 0.999
==== e(   4) =     0.31142 eV ==== 
     psi = 0.633*[#   9]+0.356*[#   7]+0.008*[#   8]
    |psi|^2 = 0.999
==== e(   5) =     0.31142 eV ==== 
     psi = 0.823*[#   8]+0.142*[#   7]+0.032*[#   9]+0.001*[#   4]
    |psi|^2 = 0.999
==== e(   6) =     9.79660 eV ==== 
     psi = 0.527*[#   2]+0.285*[#   6]+0.063*[#   1]+0.053*[#   3]+0.035*[#   5]
          +0.018*[#   4]+0.007*[#   7]+0.005*[#   9]+0.002*[#   8]
    |psi|^2 = 0.995
==== e(   7) =    22.78549 eV ==== 
     psi = 0.384*[#   4]+0.281*[#   5]+0.006*[#   3]+0.001*[#   8]
    |psi|^2 = 0.673
==== e(   8) =    22.78549 eV ==== 
     psi = 0.329*[#   3]+0.175*[#   4]+0.167*[#   5]
    |psi|^2 = 0.673
==== e(   9) =    23.28552 eV ==== 
     psi = 0.253*[#   3]+0.169*[#   5]+0.127*[#   2]+0.084*[#   4]+0.008*[#   1]
          
    |psi|^2 = 0.642

 k =   0.0481125224 -0.0680413817  0.0833333333
==== e(   1) =   -41.35104 eV ==== 
     psi = 0.894*[#   1]+0.036*[#   2]+0.035*[#   3]+0.023*[#   5]+0.012*[#   4]
          
    |psi|^2 = 0.999
==== e(   2) =   -19.77163 eV ==== 
     psi = 0.710*[#   6]+0.205*[#   2]+0.032*[#   3]+0.022*[#   5]+0.021*[#   1]
          +0.011*[#   4]
    |psi|^2 = 1.000
==== e(   3) =     0.22650 eV ==== 
     psi = 0.487*[#   7]+0.325*[#   9]+0.162*[#   8]+0.015*[#   2]+0.006*[#   6]
          +0.002*[#   1]
    |psi|^2 = 0.999
==== e(   4) =     0.29028 eV ==== 
     psi = 0.632*[#   9]+0.356*[#   7]+0.008*[#   8]+0.001*[#   5]
    |psi|^2 = 0.999
==== e(   5) =     0.29028 eV ==== 
     psi = 0.822*[#   8]+0.142*[#   7]+0.032*[#   9]+0.002*[#   4]
    |psi|^2 = 0.999
==== e(   6) =     9.89515 eV ==== 
     psi = 0.473*[#   2]+0.282*[#   6]+0.076*[#   3]+0.065*[#   1]+0.051*[#   5]
          +0.025*[#   4]+0.011*[#   7]+0.007*[#   9]+0.004*[#   8]
    |psi|^2 = 0.995
==== e(   7) =    22.49950 eV ==== 
     psi = 0.416*[#   4]+0.284*[#   5]+0.005*[#   3]+0.002*[#   8]+0.001*[#   9]
          
    |psi|^2 = 0.707
==== e(   8) =    22.49950 eV ==== 
     psi = 0.348*[#   3]+0.186*[#   5]+0.171*[#   4]+0.001*[#   7]
    |psi|^2 = 0.707
==== e(   9) =    22.94774 eV ==== 

    |psi|^2 = 0.000

 k =   0.0577350269 -0.0816496581  0.1000000000
==== e(   1) =   -41.38031 eV ==== 
     psi = 0.888*[#   1]+0.043*[#   3]+0.029*[#   5]+0.025*[#   2]+0.014*[#   4]
          
    |psi|^2 = 0.999
==== e(   2) =   -19.75827 eV ==== 
     psi = 0.711*[#   6]+0.184*[#   2]+0.042*[#   3]+0.028*[#   5]+0.021*[#   1]
          +0.014*[#   4]
    |psi|^2 = 1.000
==== e(   3) =     0.05876 eV ==== 
     psi = 0.482*[#   7]+0.322*[#   9]+0.161*[#   8]+0.021*[#   2]+0.008*[#   6]
          +0.003*[#   1]+0.001*[#   3]
    |psi|^2 = 0.999
==== e(   4) =     0.25956 eV ==== 
     psi = 0.632*[#   9]+0.355*[#   7]+0.008*[#   8]+0.002*[#   5]+0.001*[#   3]
          
    |psi|^2 = 0.999
==== e(   5) =     0.25956 eV ==== 
     psi = 0.821*[#   8]+0.142*[#   7]+0.032*[#   9]+0.003*[#   4]
    |psi|^2 = 0.999
==== e(   6) =    10.00098 eV ==== 
     psi = 0.417*[#   2]+0.278*[#   6]+0.101*[#   3]+0.067*[#   5]+0.065*[#   1]
          +0.034*[#   4]+0.016*[#   7]+0.011*[#   9]+0.005*[#   8]
    |psi|^2 = 0.995
==== e(   7) =    22.23312 eV ==== 
     psi = 0.435*[#   4]+0.296*[#   5]+0.005*[#   3]+0.002*[#   8]+0.001*[#   9]
          
    |psi|^2 = 0.739
==== e(   8) =    22.23312 eV ==== 
     psi = 0.363*[#   3]+0.195*[#   5]+0.178*[#   4]+0.002*[#   7]
    |psi|^2 = 0.739
==== e(   9) =    22.50858 eV ==== 

    |psi|^2 = 0.000

 k =   0.0673575314 -0.0952579344  0.1166666667
==== e(   1) =   -41.30804 eV ==== 
     psi = 0.882*[#   1]+0.050*[#   3]+0.034*[#   5]+0.017*[#   4]+0.016*[#   2]
          
    |psi|^2 = 0.999
==== e(   2) =   -19.74060 eV ==== 
     psi = 0.713*[#   6]+0.165*[#   2]+0.051*[#   3]+0.034*[#   5]+0.020*[#   1]
          +0.017*[#   4]
    |psi|^2 = 1.000
==== e(   3) =     0.04182 eV ==== 
     psi = 0.476*[#   7]+0.317*[#   9]+0.159*[#   8]+0.027*[#   2]+0.012*[#   6]
          +0.004*[#   1]+0.002*[#   3]+0.002*[#   5]
    |psi|^2 = 0.999
==== e(   4) =     0.28103 eV ==== 
     psi = 0.630*[#   9]+0.355*[#   7]+0.008*[#   8]+0.003*[#   5]+0.002*[#   3]
          
    |psi|^2 = 0.999
==== e(   5) =     0.28103 eV ==== 
     psi = 0.820*[#   8]+0.142*[#   7]+0.032*[#   9]+0.004*[#   4]
    |psi|^2 = 0.999
==== e(   6) =    10.19598 eV ==== 
     psi = 0.359*[#   2]+0.272*[#   6]+0.126*[#   3]+0.084*[#   5]+0.067*[#   1]
          +0.042*[#   4]+0.022*[#   7]+0.015*[#   9]+0.007*[#   8]
    |psi|^2 = 0.994
==== e(   7) =    22.01425 eV ==== 
     psi = 0.445*[#   4]+0.311*[#   5]+0.006*[#   3]+0.003*[#   8]+0.002*[#   9]
          
    |psi|^2 = 0.766
==== e(   8) =    22.01425 eV ==== 
     psi = 0.375*[#   3]+0.197*[#   5]+0.190*[#   4]+0.003*[#   7]+0.001*[#   8]
          +0.001*[#   9]
    |psi|^2 = 0.766
==== e(   9) =    22.07619 eV ==== 

    |psi|^2 = 0.000

 k =   0.0769800359 -0.1088662108  0.1333333333
==== e(   1) =   -41.23232 eV ==== 
     psi = 0.877*[#   1]+0.056*[#   3]+0.037*[#   5]+0.019*[#   4]+0.009*[#   2]
          
    |psi|^2 = 0.999
==== e(   2) =   -19.70964 eV ==== 
     psi = 0.717*[#   6]+0.146*[#   2]+0.059*[#   3]+0.039*[#   5]+0.020*[#   1]
          +0.020*[#   4]
    |psi|^2 = 1.000
==== e(   3) =     0.11435 eV ==== 
     psi = 0.469*[#   7]+0.313*[#   9]+0.156*[#   8]+0.030*[#   2]+0.014*[#   6]
          +0.006*[#   1]+0.005*[#   3]+0.003*[#   5]+0.002*[#   4]
    |psi|^2 = 0.999
==== e(   4) =     0.27406 eV ==== 
     psi = 0.629*[#   9]+0.355*[#   7]+0.008*[#   8]+0.004*[#   5]+0.002*[#   3]
          
    |psi|^2 = 0.999
==== e(   5) =     0.27406 eV ==== 
     psi = 0.819*[#   8]+0.141*[#   7]+0.032*[#   9]+0.006*[#   4]
    |psi|^2 = 0.999
==== e(   6) =    10.35273 eV ==== 
     psi = 0.308*[#   2]+0.266*[#   6]+0.148*[#   3]+0.099*[#   5]+0.067*[#   1]
          +0.049*[#   4]+0.029*[#   7]+0.019*[#   9]+0.010*[#   8]
    |psi|^2 = 0.994
==== e(   7) =    21.65473 eV ==== 

    |psi|^2 = 0.000
==== e(   8) =    21.79590 eV ==== 
     psi = 0.443*[#   4]+0.332*[#   5]+0.008*[#   3]+0.004*[#   8]+0.003*[#   9]
          
    |psi|^2 = 0.790
==== e(   9) =    21.79590 eV ==== 
     psi = 0.384*[#   3]+0.209*[#   4]+0.190*[#   5]+0.003*[#   7]+0.002*[#   8]
          +0.002*[#   9]
    |psi|^2 = 0.790

 k =   0.0866025404 -0.1224744871  0.1500000000
==== e(   1) =   -41.23338 eV ==== 
     psi = 0.874*[#   1]+0.060*[#   3]+0.040*[#   5]+0.020*[#   4]+0.005*[#   2]
          
    |psi|^2 = 0.999
==== e(   2) =   -19.68985 eV ==== 
     psi = 0.721*[#   6]+0.129*[#   2]+0.065*[#   3]+0.043*[#   5]+0.022*[#   4]
          +0.019*[#   1]
    |psi|^2 = 1.000
==== e(   3) =     0.00092 eV ==== 
     psi = 0.464*[#   7]+0.309*[#   9]+0.155*[#   8]+0.032*[#   2]+0.017*[#   6]
          +0.008*[#   3]+0.007*[#   1]+0.005*[#   5]+0.003*[#   4]
    |psi|^2 = 0.998
==== e(   4) =     0.23369 eV ==== 
     psi = 0.628*[#   9]+0.354*[#   7]+0.008*[#   8]+0.006*[#   5]+0.003*[#   3]
          
    |psi|^2 = 0.999
==== e(   5) =     0.23369 eV ==== 
     psi = 0.817*[#   8]+0.141*[#   7]+0.032*[#   9]+0.007*[#   4]+0.001*[#   3]
          
    |psi|^2 = 0.999
==== e(   6) =    10.52332 eV ==== 
     psi = 0.261*[#   2]+0.258*[#   6]+0.169*[#   3]+0.113*[#   5]+0.067*[#   1]
          +0.056*[#   4]+0.034*[#   7]+0.023*[#   9]+0.011*[#   8]
    |psi|^2 = 0.994
==== e(   7) =    21.24699 eV ==== 

    |psi|^2 = 0.000
==== e(   8) =    21.59297 eV ==== 
     psi = 0.433*[#   4]+0.354*[#   5]+0.012*[#   3]+0.005*[#   8]+0.004*[#   9]
          
    |psi|^2 = 0.808
==== e(   9) =    21.59297 eV ==== 
     psi = 0.388*[#   3]+0.233*[#   4]+0.179*[#   5]+0.004*[#   7]+0.003*[#   8]
          +0.002*[#   9]
    |psi|^2 = 0.808

 k =   0.0962250449 -0.1360827635  0.1666666667
==== e(   1) =   -41.23352 eV ==== 
     psi = 0.873*[#   1]+0.062*[#   3]+0.041*[#   5]+0.021*[#   4]+0.002*[#   2]
          
    |psi|^2 = 0.999
==== e(   2) =   -19.66788 eV ==== 
     psi = 0.727*[#   6]+0.114*[#   2]+0.070*[#   3]+0.047*[#   5]+0.023*[#   4]
          +0.018*[#   1]
    |psi|^2 = 1.000
==== e(   3) =    -0.12115 eV ==== 
     psi = 0.458*[#   7]+0.305*[#   9]+0.153*[#   8]+0.033*[#   2]+0.020*[#   6]
          +0.011*[#   3]+0.008*[#   1]+0.007*[#   5]+0.004*[#   4]
    |psi|^2 = 0.998
==== e(   4) =     0.19088 eV ==== 
     psi = 0.627*[#   9]+0.353*[#   7]+0.008*[#   8]+0.007*[#   5]+0.004*[#   3]
          
    |psi|^2 = 0.999
==== e(   5) =     0.19088 eV ==== 
     psi = 0.815*[#   8]+0.141*[#   7]+0.032*[#   9]+0.009*[#   4]+0.002*[#   3]
          
    |psi|^2 = 0.999
==== e(   6) =    10.71093 eV ==== 
     psi = 0.250*[#   6]+0.220*[#   2]+0.188*[#   3]+0.126*[#   5]+0.066*[#   1]
          +0.063*[#   4]+0.040*[#   7]+0.027*[#   9]+0.013*[#   8]
    |psi|^2 = 0.993
==== e(   7) =    20.85479 eV ==== 

    |psi|^2 = 0.000
==== e(   8) =    21.40987 eV ==== 
     psi = 0.417*[#   4]+0.377*[#   5]+0.017*[#   3]+0.006*[#   8]+0.005*[#   9]
          
    |psi|^2 = 0.822
==== e(   9) =    21.40987 eV ==== 
     psi = 0.389*[#   3]+0.259*[#   4]+0.164*[#   5]+0.005*[#   7]+0.003*[#   8]
          +0.002*[#   9]
    |psi|^2 = 0.822

 k =   0.1058475494 -0.1496910398  0.1833333333
==== e(   1) =   -41.23278 eV ==== 
     psi = 0.874*[#   1]+0.062*[#   3]+0.041*[#   5]+0.021*[#   4]
    |psi|^2 = 0.999
==== e(   2) =   -19.64387 eV ==== 
     psi = 0.734*[#   6]+0.101*[#   2]+0.074*[#   3]+0.049*[#   5]+0.025*[#   4]
          +0.017*[#   1]
    |psi|^2 = 1.000
==== e(   3) =    -0.25092 eV ==== 
     psi = 0.452*[#   7]+0.301*[#   9]+0.151*[#   8]+0.032*[#   2]+0.022*[#   6]
          +0.016*[#   3]+0.011*[#   5]+0.009*[#   1]+0.005*[#   4]
    |psi|^2 = 0.998
==== e(   4) =     0.14610 eV ==== 
     psi = 0.625*[#   9]+0.352*[#   7]+0.009*[#   5]+0.008*[#   8]+0.005*[#   3]
          
    |psi|^2 = 0.999
==== e(   5) =     0.14610 eV ==== 
     psi = 0.813*[#   8]+0.141*[#   7]+0.032*[#   9]+0.011*[#   4]+0.002*[#   3]
          
    |psi|^2 = 0.999
==== e(   6) =    10.91463 eV ==== 
     psi = 0.240*[#   6]+0.206*[#   3]+0.184*[#   2]+0.137*[#   5]+0.069*[#   4]
          +0.065*[#   1]+0.046*[#   7]+0.031*[#   9]+0.015*[#   8]
    |psi|^2 = 0.993
==== e(   7) =    20.47928 eV ==== 

    |psi|^2 = 0.000
==== e(   8) =    21.22760 eV ==== 
     psi = 0.486*[#   2]+0.090*[#   3]+0.060*[#   5]+0.030*[#   4]+0.022*[#   1]
          +0.002*[#   6]
    |psi|^2 = 0.692
==== e(   9) =    21.24590 eV ==== 
     psi = 0.511*[#   5]+0.194*[#   4]+0.115*[#   3]+0.008*[#   9]+0.003*[#   8]
          +0.002*[#   7]
    |psi|^2 = 0.834

 k =   0.1154700538 -0.1632993162  0.2000000000
==== e(   1) =   -41.19839 eV ==== 
     psi = 0.875*[#   1]+0.062*[#   3]+0.041*[#   5]+0.021*[#   4]
    |psi|^2 = 0.999
==== e(   2) =   -19.61706 eV ==== 
     psi = 0.742*[#   6]+0.089*[#   2]+0.076*[#   3]+0.051*[#   5]+0.025*[#   4]
          +0.016*[#   1]
    |psi|^2 = 1.000
==== e(   3) =    -0.38118 eV ==== 
     psi = 0.446*[#   7]+0.297*[#   9]+0.149*[#   8]+0.030*[#   2]+0.024*[#   6]
          +0.021*[#   3]+0.014*[#   5]+0.011*[#   1]+0.007*[#   4]
    |psi|^2 = 0.998
==== e(   4) =     0.14026 eV ==== 
     psi = 0.623*[#   9]+0.351*[#   7]+0.011*[#   5]+0.008*[#   8]+0.006*[#   3]
          
    |psi|^2 = 0.999
==== e(   5) =     0.14026 eV ==== 
     psi = 0.810*[#   8]+0.141*[#   7]+0.031*[#   9]+0.014*[#   4]+0.002*[#   3]
          
    |psi|^2 = 0.999
==== e(   6) =    11.15927 eV ==== 
     psi = 0.228*[#   6]+0.222*[#   3]+0.152*[#   2]+0.148*[#   5]+0.074*[#   4]
          +0.064*[#   1]+0.053*[#   7]+0.035*[#   9]+0.018*[#   8]
    |psi|^2 = 0.993
==== e(   7) =    20.12177 eV ==== 

    |psi|^2 = 0.000
==== e(   8) =    20.97407 eV ==== 
     psi = 0.550*[#   2]+0.081*[#   3]+0.054*[#   5]+0.027*[#   4]+0.024*[#   1]
          +0.003*[#   6]
    |psi|^2 = 0.740
==== e(   9) =    21.12376 eV ==== 
     psi = 0.315*[#   3]+0.278*[#   5]+0.236*[#   4]+0.006*[#   7]+0.005*[#   9]
          +0.005*[#   8]
    |psi|^2 = 0.845

 k =   0.1250925583 -0.1769075925  0.2166666667
==== e(   1) =   -41.12623 eV ==== 
     psi = 0.878*[#   1]+0.060*[#   3]+0.040*[#   5]+0.020*[#   4]
    |psi|^2 = 0.999
==== e(   2) =   -19.57911 eV ==== 
     psi = 0.752*[#   6]+0.079*[#   2]+0.077*[#   3]+0.051*[#   5]+0.026*[#   4]
          +0.015*[#   1]
    |psi|^2 = 1.000
==== e(   3) =    -0.45515 eV ==== 
     psi = 0.439*[#   7]+0.293*[#   9]+0.146*[#   8]+0.027*[#   3]+0.027*[#   2]
          +0.026*[#   6]+0.018*[#   5]+0.012*[#   1]+0.009*[#   4]
    |psi|^2 = 0.998
==== e(   4) =     0.16300 eV ==== 
     psi = 0.620*[#   9]+0.351*[#   7]+0.013*[#   5]+0.008*[#   8]+0.007*[#   3]
          
    |psi|^2 = 0.999
==== e(   5) =     0.16301 eV ==== 
     psi = 0.808*[#   8]+0.139*[#   7]+0.032*[#   9]+0.016*[#   4]+0.003*[#   3]
          
    |psi|^2 = 0.999
==== e(   6) =    11.40012 eV ==== 
     psi = 0.235*[#   3]+0.216*[#   6]+0.157*[#   5]+0.128*[#   2]+0.078*[#   4]
          +0.061*[#   1]+0.059*[#   7]+0.039*[#   9]+0.020*[#   8]
    |psi|^2 = 0.993
==== e(   7) =    19.78206 eV ==== 

    |psi|^2 = 0.000
==== e(   8) =    20.74743 eV ==== 
     psi = 0.609*[#   2]+0.073*[#   3]+0.048*[#   5]+0.025*[#   1]+0.024*[#   4]
          +0.003*[#   6]
    |psi|^2 = 0.783
==== e(   9) =    21.01058 eV ==== 
     psi = 0.403*[#   4]+0.329*[#   5]+0.105*[#   3]+0.009*[#   8]+0.008*[#   9]
          +0.002*[#   7]
    |psi|^2 = 0.857

 k =   0.1347150628 -0.1905158689  0.2333333333
==== e(   1) =   -41.12597 eV ==== 
     psi = 0.883*[#   1]+0.057*[#   3]+0.038*[#   5]+0.019*[#   4]+0.001*[#   2]
          
    |psi|^2 = 0.999
==== e(   2) =   -19.55079 eV ==== 
     psi = 0.764*[#   6]+0.077*[#   3]+0.070*[#   2]+0.051*[#   5]+0.026*[#   4]
          +0.013*[#   1]
    |psi|^2 = 1.000
==== e(   3) =    -0.60335 eV ==== 
     psi = 0.434*[#   7]+0.289*[#   9]+0.145*[#   8]+0.034*[#   3]+0.027*[#   6]
          +0.024*[#   2]+0.022*[#   5]+0.013*[#   1]+0.011*[#   4]
    |psi|^2 = 0.998
==== e(   4) =     0.11097 eV ==== 
     psi = 0.619*[#   9]+0.350*[#   7]+0.014*[#   5]+0.008*[#   3]+0.008*[#   8]
          
    |psi|^2 = 0.999
==== e(   5) =     0.11097 eV ==== 
     psi = 0.806*[#   8]+0.138*[#   7]+0.032*[#   9]+0.019*[#   4]+0.003*[#   3]
          
    |psi|^2 = 0.999
==== e(   6) =    11.64732 eV ==== 
     psi = 0.248*[#   3]+0.203*[#   6]+0.165*[#   5]+0.107*[#   2]+0.083*[#   4]
          +0.065*[#   7]+0.058*[#   1]+0.043*[#   9]+0.022*[#   8]
    |psi|^2 = 0.993
==== e(   7) =    19.46045 eV ==== 

    |psi|^2 = 0.000
==== e(   8) =    20.51894 eV ==== 
     psi = 0.661*[#   2]+0.064*[#   3]+0.043*[#   5]+0.026*[#   1]+0.021*[#   4]
          +0.004*[#   6]
    |psi|^2 = 0.820
==== e(   9) =    20.89965 eV ==== 
     psi = 0.669*[#   4]+0.104*[#   3]+0.072*[#   5]+0.018*[#   8]+0.003*[#   7]
          +0.002*[#   9]
    |psi|^2 = 0.867

 k =   0.1443375673 -0.2041241452  0.2500000000
==== e(   1) =   -41.12495 eV ==== 
     psi = 0.888*[#   1]+0.054*[#   3]+0.036*[#   5]+0.018*[#   4]+0.003*[#   2]
          
    |psi|^2 = 0.999
==== e(   2) =   -19.52127 eV ==== 
     psi = 0.776*[#   6]+0.075*[#   3]+0.062*[#   2]+0.050*[#   5]+0.025*[#   4]
          +0.011*[#   1]
    |psi|^2 = 1.000
==== e(   3) =    -0.75417 eV ==== 
     psi = 0.429*[#   7]+0.286*[#   9]+0.143*[#   8]+0.040*[#   3]+0.027*[#   6]
          +0.027*[#   5]+0.020*[#   2]+0.013*[#   1]+0.013*[#   4]
    |psi|^2 = 0.998
==== e(   4) =     0.05918 eV ==== 
     psi = 0.617*[#   9]+0.348*[#   7]+0.016*[#   5]+0.009*[#   3]+0.008*[#   8]
          
    |psi|^2 = 0.999
==== e(   5) =     0.05918 eV ==== 
     psi = 0.803*[#   8]+0.138*[#   7]+0.032*[#   9]+0.021*[#   4]+0.004*[#   3]
          
    |psi|^2 = 0.999
==== e(   6) =    11.90567 eV ==== 
     psi = 0.260*[#   3]+0.189*[#   6]+0.173*[#   5]+0.091*[#   2]+0.087*[#   4]
          +0.070*[#   7]+0.054*[#   1]+0.047*[#   9]+0.023*[#   8]
    |psi|^2 = 0.993
==== e(   7) =    19.15757 eV ==== 

    |psi|^2 = 0.000
==== e(   8) =    20.30695 eV ==== 
     psi = 0.706*[#   2]+0.056*[#   3]+0.038*[#   5]+0.027*[#   1]+0.019*[#   4]
          +0.005*[#   6]
    |psi|^2 = 0.851
==== e(   9) =    20.80396 eV ==== 
     psi = 0.483*[#   5]+0.302*[#   3]+0.068*[#   4]+0.014*[#   9]+0.009*[#   7]
          +0.002*[#   8]
    |psi|^2 = 0.879

 k =   0.1539600718 -0.2177324216  0.2666666667
==== e(   1) =   -41.12320 eV ==== 
     psi = 0.895*[#   1]+0.050*[#   3]+0.033*[#   5]+0.017*[#   4]+0.004*[#   2]
          
    |psi|^2 = 0.999
==== e(   2) =   -19.49084 eV ==== 
     psi = 0.791*[#   6]+0.072*[#   3]+0.055*[#   2]+0.048*[#   5]+0.024*[#   4]
          +0.010*[#   1]
    |psi|^2 = 1.000
==== e(   3) =    -0.90599 eV ==== 
     psi = 0.424*[#   7]+0.282*[#   9]+0.141*[#   8]+0.047*[#   3]+0.031*[#   5]
          +0.027*[#   6]+0.017*[#   2]+0.016*[#   4]+0.014*[#   1]
    |psi|^2 = 0.999
==== e(   4) =     0.00818 eV ==== 
     psi = 0.615*[#   9]+0.347*[#   7]+0.018*[#   5]+0.010*[#   3]+0.008*[#   8]
          
    |psi|^2 = 0.999
==== e(   5) =     0.00818 eV ==== 
     psi = 0.801*[#   8]+0.138*[#   7]+0.032*[#   9]+0.024*[#   4]+0.004*[#   3]
          
    |psi|^2 = 0.999
==== e(   6) =    12.17350 eV ==== 
     psi = 0.271*[#   3]+0.181*[#   5]+0.175*[#   6]+0.090*[#   4]+0.078*[#   2]
          +0.075*[#   7]+0.050*[#   9]+0.049*[#   1]+0.025*[#   8]
    |psi|^2 = 0.993
==== e(   7) =    18.87366 eV ==== 

    |psi|^2 = 0.000
==== e(   8) =    20.11060 eV ==== 
     psi = 0.744*[#   2]+0.049*[#   3]+0.033*[#   5]+0.028*[#   1]+0.016*[#   4]
          +0.005*[#   6]
    |psi|^2 = 0.876
==== e(   9) =    20.72241 eV ==== 
     psi = 0.549*[#   4]+0.279*[#   3]+0.034*[#   5]+0.018*[#   8]+0.009*[#   7]
          +0.001*[#   9]
    |psi|^2 = 0.891

 k =   0.1635825763 -0.2313406979  0.2833333333
==== e(   1) =   -41.19198 eV ==== 
     psi = 0.902*[#   1]+0.045*[#   3]+0.030*[#   5]+0.015*[#   4]+0.006*[#   2]
          
    |psi|^2 = 0.999
==== e(   2) =   -19.46546 eV ==== 
     psi = 0.806*[#   6]+0.068*[#   3]+0.049*[#   2]+0.045*[#   5]+0.023*[#   4]
          +0.008*[#   1]
    |psi|^2 = 1.000
==== e(   3) =    -1.18735 eV ==== 
     psi = 0.421*[#   7]+0.280*[#   9]+0.140*[#   8]+0.052*[#   3]+0.035*[#   5]
          +0.026*[#   6]+0.017*[#   4]+0.014*[#   2]+0.013*[#   1]
    |psi|^2 = 0.999
==== e(   4) =    -0.07847 eV ==== 
     psi = 0.614*[#   9]+0.346*[#   7]+0.020*[#   5]+0.011*[#   3]+0.008*[#   8]
          
    |psi|^2 = 0.999
==== e(   5) =    -0.07847 eV ==== 
     psi = 0.798*[#   8]+0.138*[#   7]+0.031*[#   9]+0.026*[#   4]+0.004*[#   3]
          +0.001*[#   5]
    |psi|^2 = 0.999
==== e(   6) =    12.40337 eV ==== 
     psi = 0.283*[#   3]+0.188*[#   5]+0.159*[#   6]+0.094*[#   4]+0.078*[#   7]
          +0.067*[#   2]+0.052*[#   9]+0.044*[#   1]+0.026*[#   8]
    |psi|^2 = 0.993
==== e(   7) =    18.60775 eV ==== 

    |psi|^2 = 0.000
==== e(   8) =    19.92445 eV ==== 
     psi = 0.775*[#   2]+0.043*[#   3]+0.029*[#   5]+0.028*[#   1]+0.014*[#   4]
          +0.006*[#   6]
    |psi|^2 = 0.895
==== e(   9) =    20.64635 eV ==== 
     psi = 0.517*[#   5]+0.188*[#   3]+0.167*[#   4]+0.018*[#   9]+0.007*[#   7]
          +0.006*[#   8]
    |psi|^2 = 0.903

 k =   0.1732050808 -0.2449489743  0.3000000000
==== e(   1) =   -41.19232 eV ==== 
     psi = 0.910*[#   1]+0.040*[#   3]+0.027*[#   5]+0.013*[#   4]+0.008*[#   2]
          
    |psi|^2 = 0.999
==== e(   2) =   -19.43463 eV ==== 
     psi = 0.823*[#   6]+0.063*[#   3]+0.044*[#   2]+0.042*[#   5]+0.021*[#   4]
          +0.007*[#   1]
    |psi|^2 = 1.000
==== e(   3) =    -1.33795 eV ==== 
     psi = 0.417*[#   7]+0.278*[#   9]+0.139*[#   8]+0.058*[#   3]+0.039*[#   5]
          +0.025*[#   6]+0.019*[#   4]+0.013*[#   1]+0.011*[#   2]
    |psi|^2 = 0.999
==== e(   4) =    -0.12799 eV ==== 
     psi = 0.612*[#   9]+0.345*[#   7]+0.022*[#   5]+0.012*[#   3]+0.008*[#   8]
          
    |psi|^2 = 0.999
==== e(   5) =    -0.12799 eV ==== 
     psi = 0.796*[#   8]+0.138*[#   7]+0.031*[#   9]+0.028*[#   4]+0.005*[#   3]
          +0.001*[#   5]
    |psi|^2 = 0.999
==== e(   6) =    12.67923 eV ==== 
     psi = 0.294*[#   3]+0.196*[#   5]+0.143*[#   6]+0.098*[#   4]+0.082*[#   7]
          +0.059*[#   2]+0.055*[#   9]+0.039*[#   1]+0.027*[#   8]
    |psi|^2 = 0.993
==== e(   7) =    18.36224 eV ==== 

    |psi|^2 = 0.000
==== e(   8) =    19.75322 eV ==== 
     psi = 0.802*[#   2]+0.038*[#   3]+0.028*[#   1]+0.025*[#   5]+0.013*[#   4]
          +0.007*[#   6]
    |psi|^2 = 0.912
==== e(   9) =    20.58848 eV ==== 
     psi = 0.733*[#   4]+0.078*[#   3]+0.071*[#   5]+0.028*[#   8]+0.003*[#   7]
          +0.003*[#   9]
    |psi|^2 = 0.915

 k =   0.1828275852 -0.2585572506  0.3166666667
==== e(   1) =   -41.19214 eV ==== 
     psi = 0.918*[#   1]+0.035*[#   3]+0.023*[#   5]+0.012*[#   4]+0.010*[#   2]
          
    |psi|^2 = 0.999
==== e(   2) =   -19.40401 eV ==== 
     psi = 0.842*[#   6]+0.057*[#   3]+0.039*[#   2]+0.038*[#   5]+0.019*[#   4]
          +0.005*[#   1]
    |psi|^2 = 1.000
==== e(   3) =    -1.48432 eV ==== 
     psi = 0.414*[#   7]+0.276*[#   9]+0.138*[#   8]+0.064*[#   3]+0.043*[#   5]
          +0.023*[#   6]+0.021*[#   4]+0.012*[#   1]+0.009*[#   2]
    |psi|^2 = 0.999
==== e(   4) =    -0.17526 eV ==== 
     psi = 0.611*[#   9]+0.344*[#   7]+0.023*[#   5]+0.013*[#   3]+0.008*[#   8]
          
    |psi|^2 = 0.999
==== e(   5) =    -0.17526 eV ==== 
     psi = 0.794*[#   8]+0.137*[#   7]+0.031*[#   9]+0.030*[#   4]+0.005*[#   3]
          +0.001*[#   5]
    |psi|^2 = 0.999
==== e(   6) =    12.95792 eV ==== 
     psi = 0.305*[#   3]+0.203*[#   5]+0.126*[#   6]+0.102*[#   4]+0.085*[#   7]
          +0.057*[#   9]+0.052*[#   2]+0.033*[#   1]+0.028*[#   8]
    |psi|^2 = 0.993
==== e(   7) =    18.13610 eV ==== 

    |psi|^2 = 0.000
==== e(   8) =    19.59275 eV ==== 
     psi = 0.824*[#   2]+0.033*[#   3]+0.029*[#   1]+0.022*[#   5]+0.011*[#   4]
          +0.007*[#   6]
    |psi|^2 = 0.926
==== e(   9) =    20.54114 eV ==== 
     psi = 0.583*[#   5]+0.191*[#   3]+0.117*[#   4]+0.024*[#   9]+0.008*[#   7]
          +0.005*[#   8]
    |psi|^2 = 0.927

 k =   0.1924500897 -0.2721655270  0.3333333333
==== e(   1) =   -41.15724 eV ==== 
     psi = 0.927*[#   1]+0.030*[#   3]+0.020*[#   5]+0.013*[#   2]+0.010*[#   4]
          
    |psi|^2 = 0.999
==== e(   2) =   -19.37234 eV ==== 
     psi = 0.861*[#   6]+0.050*[#   3]+0.034*[#   2]+0.034*[#   5]+0.017*[#   4]
          +0.004*[#   1]
    |psi|^2 = 1.000
==== e(   3) =    -1.59311 eV ==== 
     psi = 0.410*[#   7]+0.273*[#   9]+0.137*[#   8]+0.070*[#   3]+0.047*[#   5]
          +0.023*[#   4]+0.021*[#   6]+0.011*[#   1]+0.007*[#   2]
    |psi|^2 = 0.999
==== e(   4) =    -0.20167 eV ==== 
     psi = 0.609*[#   9]+0.343*[#   7]+0.025*[#   5]+0.014*[#   3]+0.008*[#   8]
          
    |psi|^2 = 0.999
==== e(   5) =    -0.20167 eV ==== 
     psi = 0.792*[#   8]+0.137*[#   7]+0.032*[#   4]+0.031*[#   9]+0.006*[#   3]
          +0.001*[#   5]
    |psi|^2 = 0.999
==== e(   6) =    13.28866 eV ==== 
     psi = 0.317*[#   3]+0.211*[#   5]+0.109*[#   6]+0.106*[#   4]+0.089*[#   7]
          +0.059*[#   9]+0.045*[#   2]+0.030*[#   8]+0.028*[#   1]
    |psi|^2 = 0.993
==== e(   7) =    17.92942 eV ==== 

    |psi|^2 = 0.000
==== e(   8) =    19.44871 eV ==== 
     psi = 0.844*[#   2]+0.029*[#   1]+0.029*[#   3]+0.019*[#   5]+0.010*[#   4]
          +0.008*[#   6]
    |psi|^2 = 0.938
==== e(   9) =    20.52066 eV ==== 
     psi = 0.585*[#   4]+0.250*[#   3]+0.064*[#   5]+0.025*[#   8]+0.011*[#   7]
          +0.003*[#   9]
    |psi|^2 = 0.938

 k =   0.2020725942 -0.2857738033  0.3500000000
==== e(   1) =   -41.18946 eV ==== 
     psi = 0.935*[#   1]+0.024*[#   3]+0.016*[#   5]+0.015*[#   2]+0.008*[#   4]
          
    |psi|^2 = 0.999
==== e(   2) =   -19.34483 eV ==== 
     psi = 0.880*[#   6]+0.043*[#   3]+0.030*[#   2]+0.029*[#   5]+0.014*[#   4]
          +0.003*[#   1]
    |psi|^2 = 1.000
==== e(   3) =    -1.73488 eV ==== 
     psi = 0.408*[#   7]+0.272*[#   9]+0.136*[#   8]+0.075*[#   3]+0.050*[#   5]
          +0.025*[#   4]+0.018*[#   6]+0.009*[#   1]+0.005*[#   2]
    |psi|^2 = 0.999
==== e(   4) =    -0.28741 eV ==== 
     psi = 0.609*[#   9]+0.342*[#   7]+0.025*[#   5]+0.014*[#   3]+0.008*[#   8]
          
    |psi|^2 = 0.999
==== e(   5) =    -0.28741 eV ==== 
     psi = 0.791*[#   8]+0.138*[#   7]+0.033*[#   4]+0.030*[#   9]+0.006*[#   3]
          +0.001*[#   5]
    |psi|^2 = 0.999
==== e(   6) =    13.56309 eV ==== 
     psi = 0.329*[#   3]+0.219*[#   5]+0.110*[#   4]+0.091*[#   6]+0.090*[#   7]
          +0.060*[#   9]+0.041*[#   2]+0.030*[#   8]+0.022*[#   1]
    |psi|^2 = 0.992
==== e(   7) =    17.74227 eV ==== 

    |psi|^2 = 0.000
==== e(   8) =    19.28296 eV ==== 
     psi = 0.858*[#   2]+0.029*[#   1]+0.025*[#   3]+0.017*[#   5]+0.008*[#   4]
          +0.008*[#   6]
    |psi|^2 = 0.946
==== e(   9) =    20.45600 eV ==== 
     psi = 0.362*[#   3]+0.339*[#   4]+0.208*[#   5]+0.016*[#   7]+0.015*[#   8]
          +0.009*[#   9]
    |psi|^2 = 0.948

 k =   0.2116950987 -0.2993820797  0.3666666667
==== e(   1) =   -41.18976 eV ==== 
     psi = 0.943*[#   1]+0.019*[#   3]+0.017*[#   2]+0.013*[#   5]+0.006*[#   4]
          
    |psi|^2 = 0.999
==== e(   2) =   -19.31756 eV ==== 
     psi = 0.899*[#   6]+0.036*[#   3]+0.027*[#   2]+0.024*[#   5]+0.012*[#   4]
          +0.002*[#   1]
    |psi|^2 = 1.000
==== e(   3) =    -1.85799 eV ==== 
     psi = 0.408*[#   7]+0.272*[#   9]+0.136*[#   8]+0.078*[#   3]+0.052*[#   5]
          +0.026*[#   4]+0.015*[#   6]+0.008*[#   1]+0.004*[#   2]
    |psi|^2 = 0.999
==== e(   4) =    -0.32658 eV ==== 
     psi = 0.608*[#   9]+0.341*[#   7]+0.026*[#   5]+0.015*[#   3]+0.008*[#   8]
          
    |psi|^2 = 0.999
==== e(   5) =    -0.32658 eV ==== 
     psi = 0.790*[#   8]+0.138*[#   7]+0.034*[#   4]+0.030*[#   9]+0.006*[#   3]
          +0.001*[#   5]
    |psi|^2 = 0.999
==== e(   6) =    13.83229 eV ==== 
     psi = 0.341*[#   3]+0.227*[#   5]+0.114*[#   4]+0.091*[#   7]+0.075*[#   6]
          +0.061*[#   9]+0.037*[#   2]+0.030*[#   8]+0.017*[#   1]
    |psi|^2 = 0.992
==== e(   7) =    17.57471 eV ==== 

    |psi|^2 = 0.000
==== e(   8) =    19.14455 eV ==== 
     psi = 0.870*[#   2]+0.029*[#   1]+0.022*[#   3]+0.015*[#   5]+0.009*[#   6]
          +0.007*[#   4]
    |psi|^2 = 0.953
==== e(   9) =    20.43121 eV ==== 
     psi = 0.420*[#   5]+0.385*[#   3]+0.111*[#   4]+0.019*[#   9]+0.017*[#   7]
          +0.005*[#   8]
    |psi|^2 = 0.957

 k =   0.2213176032 -0.3129903560  0.3833333333
==== e(   1) =   -41.18962 eV ==== 
     psi = 0.950*[#   1]+0.020*[#   2]+0.015*[#   3]+0.010*[#   5]+0.005*[#   4]
          
    |psi|^2 = 0.999
==== e(   2) =   -19.29221 eV ==== 
     psi = 0.918*[#   6]+0.028*[#   3]+0.024*[#   2]+0.019*[#   5]+0.009*[#   4]
          +0.001*[#   1]
    |psi|^2 = 1.000
==== e(   3) =    -1.97018 eV ==== 
     psi = 0.408*[#   7]+0.272*[#   9]+0.136*[#   8]+0.081*[#   3]+0.054*[#   5]
          +0.027*[#   4]+0.012*[#   6]+0.006*[#   1]+0.003*[#   2]
    |psi|^2 = 0.999
==== e(   4) =    -0.36181 eV ==== 
     psi = 0.608*[#   9]+0.341*[#   7]+0.027*[#   5]+0.015*[#   3]+0.008*[#   8]
          
    |psi|^2 = 0.999
==== e(   5) =    -0.36181 eV ==== 
     psi = 0.789*[#   8]+0.138*[#   7]+0.035*[#   4]+0.030*[#   9]+0.006*[#   3]
          +0.001*[#   5]
    |psi|^2 = 0.999
==== e(   6) =    14.09140 eV ==== 
     psi = 0.353*[#   3]+0.235*[#   5]+0.118*[#   4]+0.091*[#   7]+0.060*[#   9]
          +0.058*[#   6]+0.033*[#   2]+0.030*[#   8]+0.012*[#   1]
    |psi|^2 = 0.991
==== e(   7) =    17.42678 eV ==== 

    |psi|^2 = 0.000
==== e(   8) =    19.01307 eV ==== 
     psi = 0.881*[#   2]+0.029*[#   1]+0.019*[#   3]+0.013*[#   5]+0.009*[#   6]
          +0.006*[#   4]
    |psi|^2 = 0.958
==== e(   9) =    20.41236 eV ==== 
     psi = 0.480*[#   4]+0.352*[#   3]+0.089*[#   5]+0.022*[#   8]+0.016*[#   7]
          +0.004*[#   9]
    |psi|^2 = 0.964

 k =   0.2309401077 -0.3265986324  0.4000000000
==== e(   1) =   -41.18903 eV ==== 
     psi = 0.955*[#   1]+0.022*[#   2]+0.011*[#   3]+0.007*[#   5]+0.004*[#   4]
          
    |psi|^2 = 0.999
==== e(   2) =   -19.26919 eV ==== 
     psi = 0.935*[#   6]+0.021*[#   2]+0.021*[#   3]+0.014*[#   5]+0.007*[#   4]
          
    |psi|^2 = 1.000
==== e(   3) =    -2.07002 eV ==== 
     psi = 0.409*[#   7]+0.273*[#   9]+0.136*[#   8]+0.082*[#   3]+0.055*[#   5]
          +0.027*[#   4]+0.009*[#   6]+0.005*[#   1]+0.002*[#   2]
    |psi|^2 = 0.999
==== e(   4) =    -0.39275 eV ==== 
     psi = 0.607*[#   9]+0.340*[#   7]+0.028*[#   5]+0.016*[#   3]+0.008*[#   8]
          
    |psi|^2 = 0.999
==== e(   5) =    -0.39275 eV ==== 
     psi = 0.788*[#   8]+0.138*[#   7]+0.036*[#   4]+0.030*[#   9]+0.006*[#   3]
          +0.001*[#   5]
    |psi|^2 = 0.999
==== e(   6) =    14.33588 eV ==== 
     psi = 0.365*[#   3]+0.244*[#   5]+0.122*[#   4]+0.090*[#   7]+0.060*[#   9]
          +0.044*[#   6]+0.030*[#   8]+0.028*[#   2]+0.008*[#   1]
    |psi|^2 = 0.989
==== e(   7) =    17.29852 eV ==== 

    |psi|^2 = 0.000
==== e(   8) =    18.88914 eV ==== 
     psi = 0.890*[#   2]+0.030*[#   1]+0.016*[#   3]+0.011*[#   5]+0.010*[#   6]
          +0.005*[#   4]
    |psi|^2 = 0.962
==== e(   9) =    20.39842 eV ==== 
     psi = 0.451*[#   5]+0.280*[#   4]+0.195*[#   3]+0.021*[#   9]+0.013*[#   8]
          +0.009*[#   7]
    |psi|^2 = 0.970

 k =   0.2405626122 -0.3402069087  0.4166666667
==== e(   1) =   -41.18803 eV ==== 
     psi = 0.960*[#   1]+0.024*[#   2]+0.007*[#   3]+0.005*[#   5]+0.002*[#   4]
          
    |psi|^2 = 0.999
==== e(   2) =   -19.24889 eV ==== 
     psi = 0.950*[#   6]+0.019*[#   2]+0.015*[#   3]+0.010*[#   5]+0.005*[#   4]
          
    |psi|^2 = 1.000
==== e(   3) =    -2.15624 eV ==== 
     psi = 0.411*[#   7]+0.274*[#   9]+0.137*[#   8]+0.083*[#   3]+0.055*[#   5]
          +0.028*[#   4]+0.006*[#   6]+0.003*[#   1]+0.001*[#   2]
    |psi|^2 = 0.999
==== e(   4) =    -0.41913 eV ==== 
     psi = 0.606*[#   9]+0.340*[#   7]+0.029*[#   5]+0.016*[#   3]+0.008*[#   8]
          
    |psi|^2 = 1.000
==== e(   5) =    -0.41913 eV ==== 
     psi = 0.787*[#   8]+0.138*[#   7]+0.037*[#   4]+0.030*[#   9]+0.006*[#   3]
          +0.001*[#   5]
    |psi|^2 = 1.000
==== e(   6) =    14.56038 eV ==== 
     psi = 0.377*[#   3]+0.252*[#   5]+0.126*[#   4]+0.088*[#   7]+0.059*[#   9]
          +0.031*[#   6]+0.029*[#   8]+0.022*[#   2]+0.005*[#   1]
    |psi|^2 = 0.988
==== e(   7) =    17.18995 eV ==== 

    |psi|^2 = 0.000
==== e(   8) =    18.77446 eV ==== 
     psi = 0.899*[#   2]+0.030*[#   1]+0.012*[#   3]+0.010*[#   6]+0.008*[#   5]
          +0.004*[#   4]
    |psi|^2 = 0.965
==== e(   9) =    20.38848 eV ==== 
     psi = 0.569*[#   5]+0.257*[#   3]+0.103*[#   4]+0.027*[#   9]+0.012*[#   7]
          +0.005*[#   8]
    |psi|^2 = 0.974

 k =   0.2501851166 -0.3538151851  0.4333333333
==== e(   1) =   -41.18663 eV ==== 
     psi = 0.964*[#   1]+0.026*[#   2]+0.004*[#   3]+0.003*[#   5]+0.001*[#   4]
          
    |psi|^2 = 0.999
==== e(   2) =   -19.23165 eV ==== 
     psi = 0.963*[#   6]+0.017*[#   2]+0.010*[#   3]+0.006*[#   5]+0.003*[#   4]
          
    |psi|^2 = 1.000
==== e(   3) =    -2.22772 eV ==== 
     psi = 0.413*[#   7]+0.275*[#   9]+0.138*[#   8]+0.083*[#   3]+0.055*[#   5]
          +0.028*[#   4]+0.004*[#   6]+0.002*[#   1]
    |psi|^2 = 0.999
==== e(   4) =    -0.44071 eV ==== 
     psi = 0.606*[#   9]+0.339*[#   7]+0.029*[#   5]+0.016*[#   3]+0.008*[#   8]
          
    |psi|^2 = 1.000
==== e(   5) =    -0.44071 eV ==== 
     psi = 0.787*[#   8]+0.138*[#   7]+0.038*[#   4]+0.030*[#   9]+0.007*[#   3]
          +0.001*[#   5]
    |psi|^2 = 1.000
==== e(   6) =    14.75869 eV ==== 
     psi = 0.388*[#   3]+0.259*[#   5]+0.129*[#   4]+0.086*[#   7]+0.057*[#   9]
          +0.029*[#   8]+0.020*[#   6]+0.016*[#   2]+0.003*[#   1]
    |psi|^2 = 0.987
==== e(   7) =    17.10109 eV ==== 

    |psi|^2 = 0.000
==== e(   8) =    18.67202 eV ==== 
     psi = 0.907*[#   2]+0.030*[#   1]+0.011*[#   6]+0.009*[#   3]+0.006*[#   5]
          +0.003*[#   4]
    |psi|^2 = 0.966
==== e(   9) =    20.38170 eV ==== 
     psi = 0.557*[#   4]+0.323*[#   3]+0.051*[#   5]+0.027*[#   8]+0.016*[#   7]
          +0.003*[#   9]
    |psi|^2 = 0.977

 k =   0.2598076211 -0.3674234614  0.4500000000
==== e(   1) =   -41.18484 eV ==== 
     psi = 0.966*[#   1]+0.028*[#   2]+0.002*[#   3]+0.002*[#   5]
    |psi|^2 = 0.999
==== e(   2) =   -19.21779 eV ==== 
     psi = 0.973*[#   6]+0.016*[#   2]+0.005*[#   3]+0.004*[#   5]+0.002*[#   4]
          
    |psi|^2 = 1.000
==== e(   3) =    -2.28350 eV ==== 
     psi = 0.415*[#   7]+0.277*[#   9]+0.138*[#   8]+0.083*[#   3]+0.055*[#   5]
          +0.028*[#   4]+0.002*[#   6]+0.001*[#   1]
    |psi|^2 = 0.999
==== e(   4) =    -0.45727 eV ==== 
     psi = 0.606*[#   9]+0.339*[#   7]+0.029*[#   5]+0.016*[#   3]+0.008*[#   8]
          
    |psi|^2 = 1.000
==== e(   5) =    -0.45727 eV ==== 
     psi = 0.786*[#   8]+0.138*[#   7]+0.038*[#   4]+0.030*[#   9]+0.007*[#   3]
          +0.001*[#   5]
    |psi|^2 = 1.000
==== e(   6) =    14.92377 eV ==== 
     psi = 0.398*[#   3]+0.265*[#   5]+0.133*[#   4]+0.084*[#   7]+0.056*[#   9]
          +0.028*[#   8]+0.011*[#   6]+0.010*[#   2]+0.001*[#   1]
    |psi|^2 = 0.986
==== e(   7) =    17.03197 eV ==== 

    |psi|^2 = 0.000
==== e(   8) =    18.58607 eV ==== 
     psi = 0.914*[#   2]+0.030*[#   1]+0.012*[#   6]+0.005*[#   3]+0.004*[#   5]
          +0.002*[#   4]
    |psi|^2 = 0.967
==== e(   9) =    20.37739 eV ==== 
     psi = 0.551*[#   4]+0.344*[#   3]+0.037*[#   5]+0.027*[#   8]+0.017*[#   7]
          +0.002*[#   9]
    |psi|^2 = 0.979

 k =   0.2694301256 -0.3810317378  0.4666666667
==== e(   1) =   -41.11264 eV ==== 
     psi = 0.968*[#   1]+0.029*[#   2]+0.001*[#   3]
    |psi|^2 = 0.999
==== e(   2) =   -19.19983 eV ==== 
     psi = 0.980*[#   6]+0.015*[#   2]+0.002*[#   3]+0.002*[#   5]
    |psi|^2 = 1.000
==== e(   3) =    -2.30842 eV ==== 
     psi = 0.416*[#   7]+0.278*[#   9]+0.139*[#   8]+0.082*[#   3]+0.055*[#   5]
          +0.027*[#   4]+0.001*[#   6]
    |psi|^2 = 0.999
==== e(   4) =    -0.37642 eV ==== 
     psi = 0.605*[#   9]+0.340*[#   7]+0.030*[#   5]+0.017*[#   3]+0.008*[#   8]
          
    |psi|^2 = 1.000
==== e(   5) =    -0.37642 eV ==== 
     psi = 0.786*[#   8]+0.137*[#   7]+0.039*[#   4]+0.030*[#   9]+0.007*[#   3]
          +0.001*[#   5]
    |psi|^2 = 1.000
==== e(   6) =    15.06780 eV ==== 
     psi = 0.405*[#   3]+0.270*[#   5]+0.135*[#   4]+0.082*[#   7]+0.055*[#   9]
          +0.027*[#   8]+0.005*[#   2]+0.005*[#   6]
    |psi|^2 = 0.985
==== e(   7) =    16.98622 eV ==== 

    |psi|^2 = 0.000
==== e(   8) =    18.54132 eV ==== 
     psi = 0.921*[#   2]+0.030*[#   1]+0.012*[#   6]+0.003*[#   3]+0.002*[#   5]
          
    |psi|^2 = 0.968
==== e(   9) =    20.39871 eV ==== 
     psi = 0.431*[#   3]+0.275*[#   4]+0.227*[#   5]+0.022*[#   7]+0.014*[#   8]
          +0.011*[#   9]
    |psi|^2 = 0.980

 k =   0.2790526301 -0.3946400141  0.4833333333
==== e(   1) =   -41.11143 eV ==== 
     psi = 0.969*[#   1]+0.029*[#   2]
    |psi|^2 = 0.999
==== e(   2) =   -19.19366 eV ==== 
     psi = 0.984*[#   6]+0.014*[#   2]
    |psi|^2 = 1.000
==== e(   3) =    -2.33097 eV ==== 
     psi = 0.418*[#   7]+0.278*[#   9]+0.139*[#   8]+0.082*[#   3]+0.055*[#   5]
          +0.027*[#   4]
    |psi|^2 = 0.999
==== e(   4) =    -0.38441 eV ==== 
     psi = 0.605*[#   9]+0.339*[#   7]+0.030*[#   5]+0.017*[#   3]+0.008*[#   8]
          
    |psi|^2 = 1.000
==== e(   5) =    -0.38441 eV ==== 
     psi = 0.785*[#   8]+0.137*[#   7]+0.039*[#   4]+0.030*[#   9]+0.007*[#   3]
          +0.001*[#   5]
    |psi|^2 = 1.000
==== e(   6) =    15.14795 eV ==== 
     psi = 0.410*[#   3]+0.273*[#   5]+0.137*[#   4]+0.081*[#   7]+0.054*[#   9]
          +0.027*[#   8]+0.001*[#   6]
    |psi|^2 = 0.985
==== e(   7) =    16.95657 eV ==== 

    |psi|^2 = 0.000
==== e(   8) =    18.50124 eV ==== 
     psi = 0.925*[#   2]+0.030*[#   1]+0.012*[#   6]
    |psi|^2 = 0.968
==== e(   9) =    20.39720 eV ==== 
     psi = 0.548*[#   5]+0.276*[#   3]+0.109*[#   4]+0.028*[#   9]+0.014*[#   7]
          +0.006*[#   8]
    |psi|^2 = 0.980

 k =   0.2886751346 -0.4082482905  0.5000000000
==== e(   1) =   -41.08043 eV ==== 
     psi = 0.969*[#   1]+0.030*[#   2]
    |psi|^2 = 0.999
==== e(   2) =   -19.18819 eV ==== 
     psi = 0.985*[#   6]+0.014*[#   2]
    |psi|^2 = 1.000
==== e(   3) =    -2.27860 eV ==== 
     psi = 0.416*[#   7]+0.278*[#   9]+0.139*[#   8]+0.083*[#   3]+0.056*[#   5]
          +0.028*[#   4]
    |psi|^2 = 0.999
==== e(   4) =    -0.38444 eV ==== 
     psi = 0.605*[#   9]+0.339*[#   7]+0.030*[#   5]+0.017*[#   3]+0.008*[#   8]
          
    |psi|^2 = 1.000
==== e(   5) =    -0.38444 eV ==== 
     psi = 0.785*[#   8]+0.137*[#   7]+0.039*[#   4]+0.030*[#   9]+0.007*[#   3]
          +0.001*[#   5]
    |psi|^2 = 1.000
==== e(   6) =    15.27915 eV ==== 
     psi = 0.410*[#   3]+0.273*[#   5]+0.137*[#   4]+0.083*[#   7]+0.055*[#   9]
          +0.028*[#   8]
    |psi|^2 = 0.985
==== e(   7) =    16.94670 eV ==== 

    |psi|^2 = 0.000
==== e(   8) =    18.50676 eV ==== 
     psi = 0.927*[#   2]+0.030*[#   1]+0.013*[#   6]
    |psi|^2 = 0.969
==== e(   9) =    20.39768 eV ==== 
     psi = 0.705*[#   4]+0.228*[#   3]+0.036*[#   8]+0.012*[#   7]
    |psi|^2 = 0.981

 k =   0.2910807607 -0.4014441523  0.5041666667
==== e(   1) =   -41.08038 eV ==== 
     psi = 0.969*[#   1]+0.030*[#   2]
    |psi|^2 = 0.999
==== e(   2) =   -19.18822 eV ==== 
     psi = 0.985*[#   6]+0.014*[#   2]
    |psi|^2 = 1.000
==== e(   3) =    -2.27801 eV ==== 
     psi = 0.416*[#   7]+0.278*[#   9]+0.139*[#   8]+0.083*[#   3]+0.056*[#   5]
          +0.028*[#   4]
    |psi|^2 = 0.999
==== e(   4) =    -0.38516 eV ==== 
     psi = 0.635*[#   9]+0.238*[#   7]+0.079*[#   8]+0.031*[#   5]+0.012*[#   3]
          +0.004*[#   4]
    |psi|^2 = 1.000
==== e(   5) =    -0.38410 eV ==== 
     psi = 0.714*[#   8]+0.238*[#   7]+0.035*[#   4]+0.012*[#   3]
    |psi|^2 = 1.000
==== e(   6) =    15.27923 eV ==== 
     psi = 0.410*[#   3]+0.273*[#   5]+0.137*[#   4]+0.082*[#   7]+0.055*[#   9]
          +0.027*[#   8]
    |psi|^2 = 0.985
==== e(   7) =    16.94349 eV ==== 
     psi = 0.003*[#   5]+0.001*[#   3]
    |psi|^2 = 0.005
==== e(   8) =    18.50540 eV ==== 
     psi = 0.924*[#   2]+0.030*[#   1]+0.013*[#   6]+0.002*[#   5]
    |psi|^2 = 0.969
==== e(   9) =    20.39688 eV ==== 
     psi = 0.700*[#   4]+0.233*[#   3]+0.035*[#   8]+0.012*[#   7]
    |psi|^2 = 0.981

 k =   0.2934863868 -0.3946400141  0.5083333333
==== e(   1) =   -41.08024 eV ==== 
     psi = 0.969*[#   1]+0.030*[#   2]
    |psi|^2 = 0.999
==== e(   2) =   -19.18830 eV ==== 
     psi = 0.985*[#   6]+0.014*[#   2]
    |psi|^2 = 1.000
==== e(   3) =    -2.27624 eV ==== 
     psi = 0.416*[#   7]+0.278*[#   9]+0.139*[#   8]+0.083*[#   3]+0.055*[#   5]
          +0.028*[#   4]
    |psi|^2 = 0.999
==== e(   4) =    -0.38732 eV ==== 
     psi = 0.635*[#   9]+0.238*[#   7]+0.079*[#   8]+0.031*[#   5]+0.012*[#   3]
          +0.004*[#   4]
    |psi|^2 = 1.000
==== e(   5) =    -0.38309 eV ==== 
     psi = 0.714*[#   8]+0.238*[#   7]+0.035*[#   4]+0.012*[#   3]
    |psi|^2 = 1.000
==== e(   6) =    15.27947 eV ==== 
     psi = 0.410*[#   3]+0.273*[#   5]+0.137*[#   4]+0.082*[#   7]+0.055*[#   9]
          +0.027*[#   8]
    |psi|^2 = 0.985
==== e(   7) =    16.93382 eV ==== 
     psi = 0.013*[#   5]+0.005*[#   3]+0.002*[#   4]
    |psi|^2 = 0.020
==== e(   8) =    18.50157 eV ==== 
     psi = 0.917*[#   2]+0.030*[#   1]+0.013*[#   6]+0.006*[#   5]+0.002*[#   3]
          
    |psi|^2 = 0.969
==== e(   9) =    20.39447 eV ==== 
     psi = 0.701*[#   4]+0.233*[#   3]+0.035*[#   8]+0.012*[#   7]
    |psi|^2 = 0.980

 k =   0.2958920130 -0.3878358759  0.5125000000
==== e(   1) =   -41.11440 eV ==== 
     psi = 0.969*[#   1]+0.030*[#   2]
    |psi|^2 = 0.999
==== e(   2) =   -19.19229 eV ==== 
     psi = 0.985*[#   6]+0.014*[#   2]
    |psi|^2 = 1.000
==== e(   3) =    -2.28000 eV ==== 
     psi = 0.417*[#   7]+0.278*[#   9]+0.139*[#   8]+0.083*[#   3]+0.055*[#   5]
          +0.028*[#   4]
    |psi|^2 = 0.999
==== e(   4) =    -0.47876 eV ==== 
     psi = 0.635*[#   9]+0.238*[#   7]+0.079*[#   8]+0.031*[#   5]+0.012*[#   3]
          +0.004*[#   4]
    |psi|^2 = 1.000
==== e(   5) =    -0.38675 eV ==== 
     psi = 0.714*[#   8]+0.238*[#   7]+0.035*[#   4]+0.012*[#   3]
    |psi|^2 = 1.000
==== e(   6) =    15.26739 eV ==== 
     psi = 0.410*[#   3]+0.273*[#   5]+0.137*[#   4]+0.082*[#   7]+0.055*[#   9]
          +0.027*[#   8]
    |psi|^2 = 0.984
==== e(   7) =    16.91737 eV ==== 
     psi = 0.028*[#   5]+0.011*[#   3]+0.004*[#   4]+0.001*[#   9]
    |psi|^2 = 0.044
==== e(   8) =    18.48906 eV ==== 
     psi = 0.907*[#   2]+0.029*[#   1]+0.013*[#   6]+0.012*[#   5]+0.004*[#   3]
          +0.001*[#   4]
    |psi|^2 = 0.967
==== e(   9) =    20.38856 eV ==== 
     psi = 0.700*[#   4]+0.234*[#   3]+0.035*[#   8]+0.012*[#   7]
    |psi|^2 = 0.980

 k =   0.2982976391 -0.3810317378  0.5166666667
==== e(   1) =   -41.11476 eV ==== 
     psi = 0.969*[#   1]+0.029*[#   2]
    |psi|^2 = 0.999
==== e(   2) =   -19.19261 eV ==== 
     psi = 0.985*[#   6]+0.014*[#   2]
    |psi|^2 = 1.000
==== e(   3) =    -2.27602 eV ==== 
     psi = 0.417*[#   7]+0.278*[#   9]+0.139*[#   8]+0.083*[#   3]+0.055*[#   5]
          +0.028*[#   4]
    |psi|^2 = 0.999
==== e(   4) =    -0.48453 eV ==== 
     psi = 0.635*[#   9]+0.238*[#   7]+0.079*[#   8]+0.031*[#   5]+0.012*[#   3]
          +0.004*[#   4]
    |psi|^2 = 0.999
==== e(   5) =    -0.38450 eV ==== 
     psi = 0.715*[#   8]+0.238*[#   7]+0.035*[#   4]+0.012*[#   3]
    |psi|^2 = 1.000
==== e(   6) =    15.26769 eV ==== 
     psi = 0.410*[#   3]+0.273*[#   5]+0.137*[#   4]+0.082*[#   7]+0.055*[#   9]
          +0.027*[#   8]
    |psi|^2 = 0.984
==== e(   7) =    16.89473 eV ==== 
     psi = 0.050*[#   5]+0.019*[#   3]+0.006*[#   4]+0.002*[#   9]
    |psi|^2 = 0.078
==== e(   8) =    18.48272 eV ==== 
     psi = 0.893*[#   2]+0.029*[#   1]+0.019*[#   5]+0.013*[#   6]+0.007*[#   3]
          +0.002*[#   4]
    |psi|^2 = 0.964
==== e(   9) =    20.38293 eV ==== 
     psi = 0.700*[#   4]+0.233*[#   3]+0.035*[#   8]+0.012*[#   7]
    |psi|^2 = 0.980

 k =   0.3007032652 -0.3742275996  0.5208333333
==== e(   1) =   -41.11503 eV ==== 
     psi = 0.969*[#   1]+0.029*[#   2]
    |psi|^2 = 0.999
==== e(   2) =   -19.19299 eV ==== 
     psi = 0.985*[#   6]+0.014*[#   2]
    |psi|^2 = 1.000
==== e(   3) =    -2.27087 eV ==== 
     psi = 0.417*[#   7]+0.278*[#   9]+0.139*[#   8]+0.082*[#   3]+0.055*[#   5]
          +0.027*[#   4]
    |psi|^2 = 0.999
==== e(   4) =    -0.49167 eV ==== 
     psi = 0.635*[#   9]+0.238*[#   7]+0.079*[#   8]+0.030*[#   5]+0.011*[#   3]
          +0.004*[#   4]
    |psi|^2 = 0.999
==== e(   5) =    -0.38160 eV ==== 
     psi = 0.715*[#   8]+0.238*[#   7]+0.035*[#   4]+0.012*[#   3]
    |psi|^2 = 1.000
==== e(   6) =    15.26817 eV ==== 
     psi = 0.410*[#   3]+0.274*[#   5]+0.137*[#   4]+0.082*[#   7]+0.054*[#   9]
          +0.027*[#   8]
    |psi|^2 = 0.984
==== e(   7) =    16.86522 eV ==== 
     psi = 0.076*[#   5]+0.029*[#   3]+0.010*[#   4]+0.004*[#   9]+0.001*[#   7]
          
    |psi|^2 = 0.120
==== e(   8) =    18.47673 eV ==== 
     psi = 0.877*[#   2]+0.029*[#   1]+0.026*[#   5]+0.013*[#   6]+0.010*[#   3]
          +0.003*[#   4]
    |psi|^2 = 0.959
==== e(   9) =    20.37575 eV ==== 
     psi = 0.700*[#   4]+0.233*[#   3]+0.035*[#   8]+0.012*[#   7]
    |psi|^2 = 0.980

 k =   0.3031088913 -0.3674234614  0.5250000000
==== e(   1) =   -41.11523 eV ==== 
     psi = 0.969*[#   1]+0.029*[#   2]
    |psi|^2 = 0.999
==== e(   2) =   -19.19343 eV ==== 
     psi = 0.984*[#   6]+0.013*[#   2]+0.001*[#   5]
    |psi|^2 = 1.000
==== e(   3) =    -2.26455 eV ==== 
     psi = 0.418*[#   7]+0.278*[#   9]+0.139*[#   8]+0.082*[#   3]+0.055*[#   5]
          +0.027*[#   4]
    |psi|^2 = 0.999
==== e(   4) =    -0.50014 eV ==== 
     psi = 0.635*[#   9]+0.238*[#   7]+0.079*[#   8]+0.030*[#   5]+0.011*[#   3]
          +0.004*[#   4]
    |psi|^2 = 0.999
==== e(   5) =    -0.37803 eV ==== 
     psi = 0.715*[#   8]+0.238*[#   7]+0.035*[#   4]+0.012*[#   3]
    |psi|^2 = 0.999
==== e(   6) =    15.26883 eV ==== 
     psi = 0.411*[#   3]+0.274*[#   5]+0.137*[#   4]+0.081*[#   7]+0.054*[#   9]
          +0.027*[#   8]
    |psi|^2 = 0.984
==== e(   7) =    16.82883 eV ==== 
     psi = 0.107*[#   5]+0.040*[#   3]+0.013*[#   4]+0.005*[#   9]+0.002*[#   7]
          
    |psi|^2 = 0.169
==== e(   8) =    18.47228 eV ==== 
     psi = 0.860*[#   2]+0.032*[#   5]+0.029*[#   1]+0.013*[#   6]+0.012*[#   3]
          +0.004*[#   4]
    |psi|^2 = 0.951
==== e(   9) =    20.36705 eV ==== 
     psi = 0.700*[#   4]+0.233*[#   3]+0.035*[#   8]+0.012*[#   7]
    |psi|^2 = 0.979

 k =   0.3055145174 -0.3606193232  0.5291666667
==== e(   1) =   -41.11534 eV ==== 
     psi = 0.969*[#   1]+0.029*[#   2]
    |psi|^2 = 0.999
==== e(   2) =   -19.19394 eV ==== 
     psi = 0.984*[#   6]+0.013*[#   2]+0.002*[#   5]
    |psi|^2 = 1.000
==== e(   3) =    -2.25707 eV ==== 
     psi = 0.418*[#   7]+0.279*[#   9]+0.139*[#   8]+0.082*[#   3]+0.054*[#   5]
          +0.027*[#   4]
    |psi|^2 = 0.999
==== e(   4) =    -0.50992 eV ==== 
     psi = 0.635*[#   9]+0.238*[#   7]+0.079*[#   8]+0.030*[#   5]+0.011*[#   3]
          +0.004*[#   4]+0.001*[#   2]
    |psi|^2 = 0.999
==== e(   5) =    -0.37381 eV ==== 
     psi = 0.715*[#   8]+0.238*[#   7]+0.035*[#   4]+0.012*[#   3]
    |psi|^2 = 0.999
==== e(   6) =    15.26967 eV ==== 
     psi = 0.411*[#   3]+0.274*[#   5]+0.137*[#   4]+0.081*[#   7]+0.054*[#   9]
          +0.027*[#   8]
    |psi|^2 = 0.983
==== e(   7) =    16.78563 eV ==== 
     psi = 0.141*[#   5]+0.053*[#   3]+0.018*[#   4]+0.006*[#   9]+0.002*[#   7]
          
    |psi|^2 = 0.223
==== e(   8) =    18.47044 eV ==== 
     psi = 0.844*[#   2]+0.037*[#   5]+0.028*[#   1]+0.014*[#   3]+0.013*[#   6]
          +0.005*[#   4]
    |psi|^2 = 0.941
==== e(   9) =    20.35684 eV ==== 
     psi = 0.699*[#   4]+0.233*[#   3]+0.035*[#   8]+0.012*[#   7]
    |psi|^2 = 0.979

 k =   0.3079201436 -0.3538151851  0.5333333333
==== e(   1) =   -41.08403 eV ==== 
     psi = 0.969*[#   1]+0.029*[#   2]
    |psi|^2 = 0.999
==== e(   2) =   -19.19274 eV ==== 
     psi = 0.983*[#   6]+0.013*[#   2]+0.002*[#   5]
    |psi|^2 = 1.000
==== e(   3) =    -2.24640 eV ==== 
     psi = 0.418*[#   7]+0.279*[#   9]+0.139*[#   8]+0.081*[#   3]+0.054*[#   5]
          +0.027*[#   4]
    |psi|^2 = 0.999
==== e(   4) =    -0.48188 eV ==== 
     psi = 0.635*[#   9]+0.238*[#   7]+0.079*[#   8]+0.030*[#   5]+0.011*[#   3]
          +0.004*[#   4]+0.002*[#   2]
    |psi|^2 = 0.999
==== e(   5) =    -0.32781 eV ==== 
     psi = 0.715*[#   8]+0.238*[#   7]+0.035*[#   4]+0.012*[#   3]
    |psi|^2 = 0.999
==== e(   6) =    15.27253 eV ==== 
     psi = 0.411*[#   3]+0.274*[#   5]+0.137*[#   4]+0.080*[#   7]+0.054*[#   9]
          +0.027*[#   8]
    |psi|^2 = 0.983
==== e(   7) =    16.73940 eV ==== 
     psi = 0.177*[#   5]+0.066*[#   3]+0.022*[#   4]+0.008*[#   9]+0.003*[#   7]
          +0.002*[#   2]+0.001*[#   6]
    |psi|^2 = 0.280
==== e(   8) =    18.49470 eV ==== 
     psi = 0.820*[#   2]+0.042*[#   5]+0.027*[#   1]+0.016*[#   3]+0.013*[#   6]
          +0.005*[#   4]
    |psi|^2 = 0.924
==== e(   9) =    20.38097 eV ==== 
     psi = 0.699*[#   4]+0.233*[#   3]+0.035*[#   8]+0.012*[#   7]
    |psi|^2 = 0.978

 k =   0.3103257697 -0.3470110469  0.5375000000
==== e(   1) =   -41.08445 eV ==== 
     psi = 0.969*[#   1]+0.029*[#   2]
    |psi|^2 = 0.999
==== e(   2) =   -19.19341 eV ==== 
     psi = 0.983*[#   6]+0.012*[#   2]+0.003*[#   5]+0.001*[#   3]
    |psi|^2 = 1.000
==== e(   3) =    -2.23664 eV ==== 
     psi = 0.419*[#   7]+0.279*[#   9]+0.140*[#   8]+0.081*[#   3]+0.054*[#   5]
          +0.027*[#   4]
    |psi|^2 = 0.999
==== e(   4) =    -0.49489 eV ==== 
     psi = 0.635*[#   9]+0.238*[#   7]+0.079*[#   8]+0.030*[#   5]+0.011*[#   3]
          +0.004*[#   4]+0.002*[#   2]
    |psi|^2 = 0.999
==== e(   5) =    -0.32293 eV ==== 
     psi = 0.715*[#   8]+0.238*[#   7]+0.035*[#   4]+0.012*[#   3]
    |psi|^2 = 0.999
==== e(   6) =    15.27373 eV ==== 
     psi = 0.411*[#   3]+0.274*[#   5]+0.137*[#   4]+0.080*[#   7]+0.053*[#   9]
          +0.027*[#   8]
    |psi|^2 = 0.982
==== e(   7) =    16.68376 eV ==== 
     psi = 0.215*[#   5]+0.081*[#   3]+0.027*[#   4]+0.010*[#   9]+0.004*[#   7]
          +0.002*[#   2]+0.002*[#   6]+0.001*[#   8]
    |psi|^2 = 0.340
==== e(   8) =    18.50084 eV ==== 
     psi = 0.806*[#   2]+0.042*[#   5]+0.027*[#   1]+0.016*[#   3]+0.013*[#   6]
          +0.005*[#   4]
    |psi|^2 = 0.909
==== e(   9) =    20.36682 eV ==== 
     psi = 0.698*[#   4]+0.233*[#   3]+0.035*[#   8]+0.012*[#   7]
    |psi|^2 = 0.978

 k =   0.3127313958 -0.3402069087  0.5416666667
==== e(   1) =   -41.13589 eV ==== 
     psi = 0.969*[#   1]+0.029*[#   2]
    |psi|^2 = 0.999
==== e(   2) =   -19.19959 eV ==== 
     psi = 0.982*[#   6]+0.012*[#   2]+0.003*[#   5]+0.001*[#   3]
    |psi|^2 = 1.000
==== e(   3) =    -2.26136 eV ==== 
     psi = 0.420*[#   7]+0.280*[#   9]+0.140*[#   8]+0.079*[#   3]+0.053*[#   5]
          +0.026*[#   4]
    |psi|^2 = 0.999
==== e(   4) =    -0.51410 eV ==== 
     psi = 0.635*[#   9]+0.238*[#   7]+0.079*[#   8]+0.029*[#   5]+0.011*[#   3]
          +0.004*[#   4]+0.003*[#   2]
    |psi|^2 = 0.999
==== e(   5) =    -0.40574 eV ==== 
     psi = 0.716*[#   8]+0.239*[#   7]+0.034*[#   4]+0.011*[#   3]
    |psi|^2 = 0.999
==== e(   6) =    15.21230 eV ==== 
     psi = 0.412*[#   3]+0.275*[#   5]+0.137*[#   4]+0.079*[#   7]+0.052*[#   9]
          +0.026*[#   8]
    |psi|^2 = 0.982
==== e(   7) =    16.61929 eV ==== 
     psi = 0.253*[#   5]+0.095*[#   3]+0.032*[#   4]+0.011*[#   9]+0.004*[#   7]
          +0.002*[#   6]+0.002*[#   2]+0.001*[#   8]
    |psi|^2 = 0.400
==== e(   8) =    18.49542 eV ==== 
     psi = 0.795*[#   2]+0.040*[#   5]+0.027*[#   1]+0.015*[#   3]+0.013*[#   6]
          +0.005*[#   4]
    |psi|^2 = 0.896
==== e(   9) =    20.32981 eV ==== 
     psi = 0.699*[#   4]+0.233*[#   3]+0.034*[#   8]+0.011*[#   7]
    |psi|^2 = 0.977

 k =   0.3151370219 -0.3334027705  0.5458333333
==== e(   1) =   -41.13638 eV ==== 
     psi = 0.969*[#   1]+0.028*[#   2]
    |psi|^2 = 0.999
==== e(   2) =   -19.20042 eV ==== 
     psi = 0.982*[#   6]+0.012*[#   2]+0.004*[#   5]+0.002*[#   3]
    |psi|^2 = 1.000
==== e(   3) =    -2.24957 eV ==== 
     psi = 0.421*[#   7]+0.281*[#   9]+0.140*[#   8]+0.079*[#   3]+0.053*[#   5]
          +0.026*[#   4]
    |psi|^2 = 0.999
==== e(   4) =    -0.52906 eV ==== 
     psi = 0.635*[#   9]+0.238*[#   7]+0.079*[#   8]+0.029*[#   5]+0.011*[#   3]
          +0.004*[#   4]+0.003*[#   2]
    |psi|^2 = 0.999
==== e(   5) =    -0.40001 eV ==== 
     psi = 0.716*[#   8]+0.239*[#   7]+0.034*[#   4]+0.011*[#   3]
    |psi|^2 = 0.999
==== e(   6) =    15.21381 eV ==== 
     psi = 0.413*[#   3]+0.275*[#   5]+0.138*[#   4]+0.078*[#   7]+0.052*[#   9]
          +0.026*[#   8]
    |psi|^2 = 0.981
==== e(   7) =    16.55217 eV ==== 
     psi = 0.290*[#   5]+0.109*[#   3]+0.036*[#   4]+0.013*[#   9]+0.005*[#   7]
          +0.003*[#   6]+0.002*[#   2]+0.002*[#   8]
    |psi|^2 = 0.459
==== e(   8) =    18.51076 eV ==== 
     psi = 0.785*[#   2]+0.038*[#   5]+0.026*[#   1]+0.014*[#   3]+0.013*[#   6]
          +0.005*[#   4]
    |psi|^2 = 0.882
==== e(   9) =    20.31313 eV ==== 
     psi = 0.698*[#   4]+0.233*[#   3]+0.034*[#   8]+0.011*[#   7]
    |psi|^2 = 0.976

 k =   0.3175426481 -0.3265986324  0.5500000000
==== e(   1) =   -41.13679 eV ==== 
     psi = 0.969*[#   1]+0.028*[#   2]
    |psi|^2 = 0.999
==== e(   2) =   -19.20131 eV ==== 
     psi = 0.981*[#   6]+0.011*[#   2]+0.005*[#   5]+0.002*[#   3]
    |psi|^2 = 1.000
==== e(   3) =    -2.23666 eV ==== 
     psi = 0.421*[#   7]+0.281*[#   9]+0.140*[#   8]+0.078*[#   3]+0.052*[#   5]
          +0.026*[#   4]
    |psi|^2 = 0.999
==== e(   4) =    -0.54508 eV ==== 
     psi = 0.635*[#   9]+0.238*[#   7]+0.079*[#   8]+0.028*[#   5]+0.011*[#   3]
          +0.004*[#   2]+0.004*[#   4]
    |psi|^2 = 0.999
==== e(   5) =    -0.39366 eV ==== 
     psi = 0.716*[#   8]+0.239*[#   7]+0.033*[#   4]+0.011*[#   3]
    |psi|^2 = 0.999
==== e(   6) =    15.21558 eV ==== 
     psi = 0.413*[#   3]+0.275*[#   5]+0.138*[#   4]+0.077*[#   7]+0.052*[#   9]
          +0.026*[#   8]
    |psi|^2 = 0.980
==== e(   7) =    16.48010 eV ==== 
     psi = 0.325*[#   5]+0.122*[#   3]+0.041*[#   4]+0.014*[#   9]+0.005*[#   7]
          +0.004*[#   6]+0.002*[#   8]+0.002*[#   2]
    |psi|^2 = 0.515
==== e(   8) =    18.53095 eV ==== 
     psi = 0.777*[#   2]+0.036*[#   5]+0.026*[#   1]+0.013*[#   3]+0.013*[#   6]
          +0.004*[#   4]
    |psi|^2 = 0.869
==== e(   9) =    20.29523 eV ==== 
     psi = 0.698*[#   4]+0.233*[#   3]+0.033*[#   8]+0.011*[#   7]
    |psi|^2 = 0.975

 k =   0.3199482742 -0.3197944942  0.5541666667
==== e(   1) =   -41.13711 eV ==== 
     psi = 0.969*[#   1]+0.028*[#   2]
    |psi|^2 = 0.999
==== e(   2) =   -19.20227 eV ==== 
     psi = 0.981*[#   6]+0.011*[#   2]+0.005*[#   5]+0.002*[#   3]
    |psi|^2 = 1.000
==== e(   3) =    -2.22263 eV ==== 
     psi = 0.422*[#   7]+0.281*[#   9]+0.141*[#   8]+0.078*[#   3]+0.052*[#   5]
          +0.026*[#   4]
    |psi|^2 = 0.999
==== e(   4) =    -0.56208 eV ==== 
     psi = 0.635*[#   9]+0.238*[#   7]+0.079*[#   8]+0.028*[#   5]+0.010*[#   3]
          +0.005*[#   2]+0.003*[#   4]
    |psi|^2 = 0.999
==== e(   5) =    -0.38668 eV ==== 
     psi = 0.716*[#   8]+0.239*[#   7]+0.033*[#   4]+0.011*[#   3]
    |psi|^2 = 0.999
==== e(   6) =    15.21764 eV ==== 
     psi = 0.413*[#   3]+0.275*[#   5]+0.138*[#   4]+0.077*[#   7]+0.051*[#   9]
          +0.026*[#   8]
    |psi|^2 = 0.980
==== e(   7) =    16.40364 eV ==== 
     psi = 0.359*[#   5]+0.135*[#   3]+0.045*[#   4]+0.015*[#   9]+0.006*[#   7]
          +0.005*[#   6]+0.002*[#   8]+0.001*[#   2]
    |psi|^2 = 0.568
==== e(   8) =    18.55583 eV ==== 
     psi = 0.771*[#   2]+0.033*[#   5]+0.026*[#   1]+0.012*[#   3]+0.012*[#   6]
          +0.004*[#   4]
    |psi|^2 = 0.858
==== e(   9) =    20.27617 eV ==== 
     psi = 0.698*[#   4]+0.233*[#   3]+0.033*[#   8]+0.011*[#   7]
    |psi|^2 = 0.975

 k =   0.3223539003 -0.3129903560  0.5583333333
==== e(   1) =   -41.13736 eV ==== 
     psi = 0.969*[#   1]+0.028*[#   2]
    |psi|^2 = 0.999
==== e(   2) =   -19.20330 eV ==== 
     psi = 0.980*[#   6]+0.010*[#   2]+0.006*[#   5]+0.002*[#   3]
    |psi|^2 = 1.000
==== e(   3) =    -2.20751 eV ==== 
     psi = 0.423*[#   7]+0.282*[#   9]+0.141*[#   8]+0.077*[#   3]+0.051*[#   5]
          +0.026*[#   4]
    |psi|^2 = 0.999
==== e(   4) =    -0.58001 eV ==== 
     psi = 0.635*[#   9]+0.238*[#   7]+0.079*[#   8]+0.027*[#   5]+0.010*[#   3]
          +0.005*[#   2]+0.003*[#   4]
    |psi|^2 = 0.999
==== e(   5) =    -0.37910 eV ==== 
     psi = 0.717*[#   8]+0.239*[#   7]+0.033*[#   4]+0.011*[#   3]
    |psi|^2 = 0.999
==== e(   6) =    15.22001 eV ==== 
     psi = 0.414*[#   3]+0.276*[#   5]+0.138*[#   4]+0.076*[#   7]+0.051*[#   9]
          +0.025*[#   8]
    |psi|^2 = 0.979
==== e(   7) =    16.32333 eV ==== 
     psi = 0.390*[#   5]+0.146*[#   3]+0.049*[#   4]+0.016*[#   9]+0.006*[#   7]
          +0.005*[#   6]+0.002*[#   8]+0.001*[#   2]
    |psi|^2 = 0.617
==== e(   8) =    18.58515 eV ==== 
     psi = 0.767*[#   2]+0.030*[#   5]+0.025*[#   1]+0.012*[#   6]+0.011*[#   3]
          +0.004*[#   4]
    |psi|^2 = 0.850
==== e(   9) =    20.25601 eV ==== 
     psi = 0.698*[#   4]+0.233*[#   3]+0.033*[#   8]+0.011*[#   7]
    |psi|^2 = 0.974

 k =   0.3247595264 -0.3061862179  0.5625000000
==== e(   1) =   -41.13752 eV ==== 
     psi = 0.969*[#   1]+0.028*[#   2]
    |psi|^2 = 0.999
==== e(   2) =   -19.20441 eV ==== 
     psi = 0.980*[#   6]+0.010*[#   2]+0.007*[#   5]+0.003*[#   3]
    |psi|^2 = 1.000
==== e(   3) =    -2.19129 eV ==== 
     psi = 0.424*[#   7]+0.282*[#   9]+0.141*[#   8]+0.076*[#   3]+0.051*[#   5]
          +0.025*[#   4]
    |psi|^2 = 0.999
==== e(   4) =    -0.59880 eV ==== 
     psi = 0.635*[#   9]+0.238*[#   7]+0.079*[#   8]+0.027*[#   5]+0.010*[#   3]
          +0.006*[#   2]+0.003*[#   4]
    |psi|^2 = 0.999
==== e(   5) =    -0.37092 eV ==== 
     psi = 0.717*[#   8]+0.239*[#   7]+0.032*[#   4]+0.011*[#   3]
    |psi|^2 = 0.999
==== e(   6) =    15.22269 eV ==== 
     psi = 0.414*[#   3]+0.276*[#   5]+0.138*[#   4]+0.075*[#   7]+0.050*[#   9]
          +0.025*[#   8]
    |psi|^2 = 0.978
==== e(   7) =    16.23973 eV ==== 
     psi = 0.419*[#   5]+0.157*[#   3]+0.052*[#   4]+0.017*[#   9]+0.007*[#   7]
          +0.006*[#   6]+0.002*[#   8]
    |psi|^2 = 0.662
==== e(   8) =    18.61858 eV ==== 
     psi = 0.766*[#   2]+0.027*[#   5]+0.025*[#   1]+0.011*[#   6]+0.010*[#   3]
          +0.003*[#   4]
    |psi|^2 = 0.843
==== e(   9) =    20.23484 eV ==== 
     psi = 0.697*[#   4]+0.232*[#   3]+0.032*[#   8]+0.011*[#   7]
    |psi|^2 = 0.973

 k =   0.3271651525 -0.2993820797  0.5666666667
==== e(   1) =   -41.13759 eV ==== 
     psi = 0.969*[#   1]+0.027*[#   2]
    |psi|^2 = 0.999
==== e(   2) =   -19.20560 eV ==== 
     psi = 0.979*[#   6]+0.009*[#   2]+0.007*[#   5]+0.003*[#   3]
    |psi|^2 = 1.000
==== e(   3) =    -2.17400 eV ==== 
     psi = 0.424*[#   7]+0.283*[#   9]+0.141*[#   8]+0.075*[#   3]+0.050*[#   5]
          +0.025*[#   4]
    |psi|^2 = 0.999
==== e(   4) =    -0.61836 eV ==== 
     psi = 0.635*[#   9]+0.238*[#   7]+0.079*[#   8]+0.026*[#   5]+0.010*[#   3]
          +0.007*[#   2]+0.003*[#   4]
    |psi|^2 = 0.999
==== e(   5) =    -0.36215 eV ==== 
     psi = 0.718*[#   8]+0.239*[#   7]+0.032*[#   4]+0.011*[#   3]
    |psi|^2 = 0.999
==== e(   6) =    15.22572 eV ==== 
     psi = 0.414*[#   3]+0.276*[#   5]+0.138*[#   4]+0.074*[#   7]+0.050*[#   9]
          +0.025*[#   8]
    |psi|^2 = 0.977
==== e(   7) =    16.15333 eV ==== 
     psi = 0.445*[#   5]+0.167*[#   3]+0.056*[#   4]+0.018*[#   9]+0.007*[#   6]
          +0.007*[#   7]+0.002*[#   8]
    |psi|^2 = 0.703
==== e(   8) =    18.65579 eV ==== 
     psi = 0.765*[#   2]+0.025*[#   1]+0.024*[#   5]+0.011*[#   6]+0.009*[#   3]
          +0.003*[#   4]
    |psi|^2 = 0.839
==== e(   9) =    20.21272 eV ==== 
     psi = 0.697*[#   4]+0.232*[#   3]+0.032*[#   8]+0.011*[#   7]
    |psi|^2 = 0.972

 k =   0.3295707787 -0.2925779415  0.5708333333
==== e(   1) =   -41.13759 eV ==== 
     psi = 0.969*[#   1]+0.027*[#   2]
    |psi|^2 = 0.999
==== e(   2) =   -19.20688 eV ==== 
     psi = 0.979*[#   6]+0.009*[#   2]+0.008*[#   5]+0.003*[#   3]+0.001*[#   4]
          
    |psi|^2 = 1.000
==== e(   3) =    -2.15564 eV ==== 
     psi = 0.425*[#   7]+0.283*[#   9]+0.142*[#   8]+0.074*[#   3]+0.050*[#   5]
          +0.025*[#   4]
    |psi|^2 = 0.999
==== e(   4) =    -0.63862 eV ==== 
     psi = 0.635*[#   9]+0.238*[#   7]+0.079*[#   8]+0.026*[#   5]+0.010*[#   3]
          +0.008*[#   2]+0.003*[#   4]
    |psi|^2 = 0.999
==== e(   5) =    -0.35281 eV ==== 
     psi = 0.718*[#   8]+0.239*[#   7]+0.031*[#   4]+0.010*[#   3]
    |psi|^2 = 0.999
==== e(   6) =    15.22912 eV ==== 
     psi = 0.415*[#   3]+0.276*[#   5]+0.138*[#   4]+0.073*[#   7]+0.049*[#   9]
          +0.024*[#   8]
    |psi|^2 = 0.976
==== e(   7) =    16.06460 eV ==== 
     psi = 0.468*[#   5]+0.175*[#   3]+0.058*[#   4]+0.019*[#   9]+0.008*[#   6]
          +0.007*[#   7]+0.002*[#   8]
    |psi|^2 = 0.739
==== e(   8) =    18.69640 eV ==== 
     psi = 0.767*[#   2]+0.025*[#   1]+0.022*[#   5]+0.011*[#   6]+0.008*[#   3]
          +0.003*[#   4]
    |psi|^2 = 0.837
==== e(   9) =    20.18973 eV ==== 
     psi = 0.697*[#   4]+0.232*[#   3]+0.031*[#   8]+0.010*[#   7]
    |psi|^2 = 0.971

 k =   0.3319764048 -0.2857738033  0.5750000000
==== e(   1) =   -41.13751 eV ==== 
     psi = 0.970*[#   1]+0.027*[#   2]
    |psi|^2 = 0.999
==== e(   2) =   -19.20824 eV ==== 
     psi = 0.978*[#   6]+0.009*[#   5]+0.008*[#   2]+0.003*[#   3]+0.001*[#   4]
          
    |psi|^2 = 1.000
==== e(   3) =    -2.13623 eV ==== 
     psi = 0.426*[#   7]+0.284*[#   9]+0.142*[#   8]+0.074*[#   3]+0.049*[#   5]
          +0.025*[#   4]
    |psi|^2 = 0.999
==== e(   4) =    -0.65951 eV ==== 
     psi = 0.634*[#   9]+0.238*[#   7]+0.079*[#   8]+0.025*[#   5]+0.010*[#   3]
          +0.008*[#   2]+0.003*[#   4]
    |psi|^2 = 0.999
==== e(   5) =    -0.34291 eV ==== 
     psi = 0.718*[#   8]+0.239*[#   7]+0.031*[#   4]+0.010*[#   3]
    |psi|^2 = 0.999
==== e(   6) =    15.23291 eV ==== 
     psi = 0.415*[#   3]+0.277*[#   5]+0.138*[#   4]+0.073*[#   7]+0.048*[#   9]
          +0.024*[#   8]
    |psi|^2 = 0.976
==== e(   7) =    15.97397 eV ==== 
     psi = 0.488*[#   5]+0.183*[#   3]+0.061*[#   4]+0.020*[#   9]+0.009*[#   6]
          +0.008*[#   7]+0.003*[#   8]
    |psi|^2 = 0.772
==== e(   8) =    18.74003 eV ==== 
     psi = 0.769*[#   2]+0.025*[#   1]+0.020*[#   5]+0.010*[#   6]+0.008*[#   3]
          +0.003*[#   4]
    |psi|^2 = 0.837
==== e(   9) =    20.16595 eV ==== 
     psi = 0.696*[#   4]+0.232*[#   3]+0.031*[#   8]+0.010*[#   7]
    |psi|^2 = 0.970

 k =   0.3343820309 -0.2789696652  0.5791666667
==== e(   1) =   -41.13735 eV ==== 
     psi = 0.970*[#   1]+0.027*[#   2]
    |psi|^2 = 0.999
==== e(   2) =   -19.20969 eV ==== 
     psi = 0.978*[#   6]+0.009*[#   5]+0.008*[#   2]+0.004*[#   3]+0.001*[#   4]
          
    |psi|^2 = 1.000
==== e(   3) =    -2.11579 eV ==== 
     psi = 0.427*[#   7]+0.285*[#   9]+0.142*[#   8]+0.073*[#   3]+0.049*[#   5]
          +0.024*[#   4]
    |psi|^2 = 0.999
==== e(   4) =    -0.68094 eV ==== 
     psi = 0.634*[#   9]+0.238*[#   7]+0.079*[#   8]+0.025*[#   5]+0.009*[#   3]
          +0.009*[#   2]+0.003*[#   4]
    |psi|^2 = 0.999
==== e(   5) =    -0.33246 eV ==== 
     psi = 0.719*[#   8]+0.240*[#   7]+0.030*[#   4]+0.010*[#   3]
    |psi|^2 = 0.999
==== e(   6) =    15.23711 eV ==== 
     psi = 0.416*[#   3]+0.277*[#   5]+0.139*[#   4]+0.072*[#   7]+0.048*[#   9]
          +0.024*[#   8]
    |psi|^2 = 0.975
==== e(   7) =    15.88181 eV ==== 
     psi = 0.506*[#   5]+0.190*[#   3]+0.063*[#   4]+0.021*[#   9]+0.010*[#   6]
          +0.008*[#   7]+0.003*[#   8]
    |psi|^2 = 0.800
==== e(   8) =    18.78630 eV ==== 
     psi = 0.773*[#   2]+0.025*[#   1]+0.019*[#   5]+0.010*[#   6]+0.007*[#   3]
          +0.002*[#   4]+0.001*[#   9]
    |psi|^2 = 0.838
==== e(   9) =    20.14146 eV ==== 
     psi = 0.696*[#   4]+0.232*[#   3]+0.031*[#   8]+0.010*[#   7]
    |psi|^2 = 0.969

 k =   0.3367876570 -0.2721655270  0.5833333333
==== e(   1) =   -41.13710 eV ==== 
     psi = 0.970*[#   1]+0.026*[#   2]+0.001*[#   9]
    |psi|^2 = 0.999
==== e(   2) =   -19.21124 eV ==== 
     psi = 0.977*[#   6]+0.010*[#   5]+0.007*[#   2]+0.004*[#   3]+0.001*[#   4]
          
    |psi|^2 = 1.000
==== e(   3) =    -2.09432 eV ==== 
     psi = 0.428*[#   7]+0.285*[#   9]+0.143*[#   8]+0.072*[#   3]+0.048*[#   5]
          +0.024*[#   4]
    |psi|^2 = 0.999
==== e(   4) =    -0.70284 eV ==== 
     psi = 0.634*[#   9]+0.238*[#   7]+0.079*[#   8]+0.024*[#   5]+0.010*[#   2]
          +0.009*[#   3]+0.003*[#   4]
    |psi|^2 = 0.999
==== e(   5) =    -0.32149 eV ==== 
     psi = 0.719*[#   8]+0.240*[#   7]+0.030*[#   4]+0.010*[#   3]
    |psi|^2 = 0.999
==== e(   6) =    15.24175 eV ==== 
     psi = 0.416*[#   3]+0.277*[#   5]+0.139*[#   4]+0.071*[#   7]+0.047*[#   9]
          +0.024*[#   8]
    |psi|^2 = 0.974
==== e(   7) =    15.78845 eV ==== 
     psi = 0.521*[#   5]+0.195*[#   3]+0.065*[#   4]+0.021*[#   9]+0.011*[#   6]
          +0.008*[#   7]+0.003*[#   8]
    |psi|^2 = 0.825
==== e(   8) =    18.83485 eV ==== 
     psi = 0.778*[#   2]+0.025*[#   1]+0.018*[#   5]+0.010*[#   6]+0.007*[#   3]
          +0.002*[#   4]+0.002*[#   9]
    |psi|^2 = 0.841
==== e(   9) =    20.11636 eV ==== 
     psi = 0.696*[#   4]+0.232*[#   3]+0.030*[#   8]+0.010*[#   7]
    |psi|^2 = 0.968

 k =   0.3391932831 -0.2653613888  0.5875000000
==== e(   1) =   -41.13679 eV ==== 
     psi = 0.970*[#   1]+0.026*[#   2]+0.001*[#   9]
    |psi|^2 = 0.999
==== e(   2) =   -19.21288 eV ==== 
     psi = 0.976*[#   6]+0.011*[#   5]+0.007*[#   2]+0.004*[#   3]+0.001*[#   4]
          
    |psi|^2 = 1.000
==== e(   3) =    -2.07184 eV ==== 
     psi = 0.429*[#   7]+0.286*[#   9]+0.143*[#   8]+0.071*[#   3]+0.047*[#   5]
          +0.024*[#   4]
    |psi|^2 = 0.999
==== e(   4) =    -0.72511 eV ==== 
     psi = 0.634*[#   9]+0.238*[#   7]+0.079*[#   8]+0.024*[#   5]+0.011*[#   2]
          +0.009*[#   3]+0.003*[#   4]
    |psi|^2 = 0.999
==== e(   5) =    -0.30999 eV ==== 
     psi = 0.720*[#   8]+0.240*[#   7]+0.029*[#   4]+0.010*[#   3]
    |psi|^2 = 0.999
==== e(   6) =    15.24687 eV ==== 
     psi = 0.417*[#   3]+0.278*[#   5]+0.139*[#   4]+0.070*[#   7]+0.047*[#   9]
          +0.023*[#   8]
    |psi|^2 = 0.973
==== e(   7) =    15.69419 eV ==== 
     psi = 0.534*[#   5]+0.200*[#   3]+0.067*[#   4]+0.022*[#   9]+0.012*[#   6]
          +0.008*[#   7]+0.003*[#   8]+0.001*[#   2]
    |psi|^2 = 0.847
==== e(   8) =    18.88530 eV ==== 
     psi = 0.783*[#   2]+0.025*[#   1]+0.017*[#   5]+0.009*[#   6]+0.006*[#   3]
          +0.002*[#   4]+0.002*[#   9]
    |psi|^2 = 0.846
==== e(   9) =    20.09073 eV ==== 
     psi = 0.696*[#   4]+0.232*[#   3]+0.029*[#   8]+0.010*[#   7]
    |psi|^2 = 0.967

 k =   0.3415989093 -0.2585572506  0.5916666667
==== e(   1) =   -41.13639 eV ==== 
     psi = 0.970*[#   1]+0.026*[#   2]+0.001*[#   9]
    |psi|^2 = 0.999
==== e(   2) =   -19.21463 eV ==== 
     psi = 0.976*[#   6]+0.011*[#   5]+0.007*[#   2]+0.004*[#   3]+0.001*[#   4]
          
    |psi|^2 = 1.000
==== e(   3) =    -2.04838 eV ==== 
     psi = 0.430*[#   7]+0.286*[#   9]+0.143*[#   8]+0.070*[#   3]+0.047*[#   5]
          +0.023*[#   4]
    |psi|^2 = 0.999
==== e(   4) =    -0.74768 eV ==== 
     psi = 0.634*[#   9]+0.238*[#   7]+0.079*[#   8]+0.024*[#   5]+0.012*[#   2]
          +0.009*[#   3]+0.003*[#   4]+0.001*[#   1]
    |psi|^2 = 0.999
==== e(   5) =    -0.29800 eV ==== 
     psi = 0.720*[#   8]+0.240*[#   7]+0.029*[#   4]+0.010*[#   3]
    |psi|^2 = 0.999
==== e(   6) =    15.25248 eV ==== 
     psi = 0.417*[#   3]+0.278*[#   5]+0.139*[#   4]+0.069*[#   7]+0.046*[#   9]
          +0.023*[#   8]
    |psi|^2 = 0.972
==== e(   7) =    15.59930 eV ==== 
     psi = 0.545*[#   5]+0.204*[#   3]+0.068*[#   4]+0.023*[#   9]+0.013*[#   6]
          +0.008*[#   7]+0.003*[#   8]+0.002*[#   2]
    |psi|^2 = 0.866
==== e(   8) =    18.93733 eV ==== 
     psi = 0.789*[#   2]+0.025*[#   1]+0.016*[#   5]+0.009*[#   6]+0.006*[#   3]
          +0.002*[#   9]+0.002*[#   4]
    |psi|^2 = 0.851
==== e(   9) =    20.06466 eV ==== 
     psi = 0.695*[#   4]+0.232*[#   3]+0.029*[#   8]+0.010*[#   7]
    |psi|^2 = 0.966

 k =   0.3440045354 -0.2517531125  0.5958333333
==== e(   1) =   -41.13592 eV ==== 
     psi = 0.970*[#   1]+0.026*[#   2]+0.001*[#   9]
    |psi|^2 = 0.999
==== e(   2) =   -19.21649 eV ==== 
     psi = 0.975*[#   6]+0.012*[#   5]+0.006*[#   2]+0.005*[#   3]+0.002*[#   4]
          
    |psi|^2 = 1.000
==== e(   3) =    -2.02394 eV ==== 
     psi = 0.431*[#   7]+0.287*[#   9]+0.144*[#   8]+0.069*[#   3]+0.046*[#   5]
          +0.023*[#   4]
    |psi|^2 = 0.999
==== e(   4) =    -0.77047 eV ==== 
     psi = 0.633*[#   9]+0.237*[#   7]+0.079*[#   8]+0.023*[#   5]+0.012*[#   2]
          +0.009*[#   3]+0.003*[#   4]+0.001*[#   1]
    |psi|^2 = 0.999
==== e(   5) =    -0.28552 eV ==== 
     psi = 0.721*[#   8]+0.240*[#   7]+0.028*[#   4]+0.009*[#   3]
    |psi|^2 = 0.999
==== e(   6) =    15.25862 eV ==== 
     psi = 0.418*[#   3]+0.278*[#   5]+0.139*[#   4]+0.068*[#   7]+0.045*[#   9]
          +0.023*[#   8]
    |psi|^2 = 0.971
==== e(   7) =    15.50400 eV ==== 
     psi = 0.554*[#   5]+0.208*[#   3]+0.069*[#   4]+0.023*[#   9]+0.014*[#   6]
          +0.009*[#   7]+0.003*[#   2]+0.003*[#   8]
    |psi|^2 = 0.883
==== e(   8) =    18.99058 eV ==== 
     psi = 0.796*[#   2]+0.025*[#   1]+0.016*[#   5]+0.008*[#   6]+0.006*[#   3]
          +0.003*[#   9]+0.002*[#   4]
    |psi|^2 = 0.857
==== e(   9) =    20.03824 eV ==== 
     psi = 0.695*[#   4]+0.232*[#   3]+0.028*[#   8]+0.009*[#   7]
    |psi|^2 = 0.965

 k =   0.3464101615 -0.2449489743  0.6000000000
==== e(   1) =   -41.13537 eV ==== 
     psi = 0.970*[#   1]+0.026*[#   2]+0.001*[#   9]
    |psi|^2 = 0.999
==== e(   2) =   -19.21845 eV ==== 
     psi = 0.975*[#   6]+0.013*[#   5]+0.006*[#   2]+0.005*[#   3]+0.002*[#   4]
          
    |psi|^2 = 1.000
==== e(   3) =    -1.99855 eV ==== 
     psi = 0.432*[#   7]+0.288*[#   9]+0.144*[#   8]+0.068*[#   3]+0.045*[#   5]
          +0.023*[#   4]
    |psi|^2 = 0.999
==== e(   4) =    -0.79338 eV ==== 
     psi = 0.633*[#   9]+0.237*[#   7]+0.079*[#   8]+0.023*[#   5]+0.013*[#   2]
          +0.009*[#   3]+0.003*[#   4]+0.001*[#   1]
    |psi|^2 = 0.999
==== e(   5) =    -0.27258 eV ==== 
     psi = 0.722*[#   8]+0.241*[#   7]+0.028*[#   4]+0.009*[#   3]
    |psi|^2 = 0.999
==== e(   6) =    15.26532 eV ==== 
     psi = 0.418*[#   3]+0.279*[#   5]+0.139*[#   4]+0.067*[#   7]+0.045*[#   9]
          +0.022*[#   8]
    |psi|^2 = 0.970
==== e(   7) =    15.40849 eV ==== 
     psi = 0.561*[#   5]+0.210*[#   3]+0.070*[#   4]+0.024*[#   9]+0.014*[#   6]
          +0.009*[#   7]+0.005*[#   2]+0.003*[#   8]
    |psi|^2 = 0.897
==== e(   8) =    19.04473 eV ==== 
     psi = 0.802*[#   2]+0.025*[#   1]+0.016*[#   5]+0.008*[#   6]+0.006*[#   3]
          +0.003*[#   9]+0.002*[#   4]+0.001*[#   7]
    |psi|^2 = 0.864
==== e(   9) =    20.01156 eV ==== 
     psi = 0.695*[#   4]+0.232*[#   3]+0.028*[#   8]+0.009*[#   7]
    |psi|^2 = 0.964

 k =   0.3488157876 -0.2381448361  0.6041666667
==== e(   1) =   -41.13475 eV ==== 
     psi = 0.970*[#   1]+0.025*[#   2]+0.002*[#   9]
    |psi|^2 = 0.999
==== e(   2) =   -19.22052 eV ==== 
     psi = 0.974*[#   6]+0.014*[#   5]+0.005*[#   2]+0.005*[#   3]+0.002*[#   4]
          
    |psi|^2 = 1.000
==== e(   3) =    -1.97222 eV ==== 
     psi = 0.432*[#   7]+0.288*[#   9]+0.144*[#   8]+0.067*[#   3]+0.045*[#   5]
          +0.022*[#   4]
    |psi|^2 = 0.999
==== e(   4) =    -0.81633 eV ==== 
     psi = 0.632*[#   9]+0.237*[#   7]+0.079*[#   8]+0.023*[#   5]+0.014*[#   2]
          +0.009*[#   3]+0.003*[#   4]+0.001*[#   1]
    |psi|^2 = 0.999
==== e(   5) =    -0.25919 eV ==== 
     psi = 0.722*[#   8]+0.241*[#   7]+0.027*[#   4]+0.009*[#   3]
    |psi|^2 = 0.999
==== e(   6) =    15.27262 eV ==== 
     psi = 0.419*[#   3]+0.279*[#   5]+0.140*[#   4]+0.066*[#   7]+0.044*[#   9]
          +0.022*[#   8]
    |psi|^2 = 0.969
==== e(   7) =    15.31295 eV ==== 
     psi = 0.567*[#   5]+0.213*[#   3]+0.071*[#   4]+0.024*[#   9]+0.015*[#   6]
          +0.009*[#   7]+0.007*[#   2]+0.003*[#   8]
    |psi|^2 = 0.909
==== e(   8) =    19.09949 eV ==== 
     psi = 0.809*[#   2]+0.025*[#   1]+0.016*[#   5]+0.008*[#   6]+0.006*[#   3]
          +0.003*[#   9]+0.002*[#   4]+0.001*[#   7]
    |psi|^2 = 0.871
==== e(   9) =    19.98473 eV ==== 
     psi = 0.695*[#   4]+0.232*[#   3]+0.027*[#   8]+0.009*[#   7]
    |psi|^2 = 0.962

 k =   0.3512214138 -0.2313406979  0.6083333333
==== e(   1) =   -41.18454 eV ==== 
     psi = 0.970*[#   1]+0.025*[#   2]+0.002*[#   9]
    |psi|^2 = 0.999
==== e(   2) =   -19.22595 eV ==== 
     psi = 0.974*[#   6]+0.014*[#   5]+0.005*[#   3]+0.005*[#   2]+0.002*[#   4]
          
    |psi|^2 = 1.000
==== e(   3) =    -1.95618 eV ==== 
     psi = 0.434*[#   7]+0.289*[#   9]+0.145*[#   8]+0.066*[#   3]+0.044*[#   5]
          +0.022*[#   4]
    |psi|^2 = 0.999
==== e(   4) =    -0.95123 eV ==== 
     psi = 0.633*[#   9]+0.237*[#   7]+0.079*[#   8]+0.022*[#   5]+0.015*[#   2]
          +0.008*[#   3]+0.003*[#   4]+0.001*[#   1]
    |psi|^2 = 0.999
==== e(   5) =    -0.26508 eV ==== 
     psi = 0.723*[#   8]+0.241*[#   7]+0.026*[#   4]+0.009*[#   3]
    |psi|^2 = 0.999
==== e(   6) =    15.16440 eV ==== 
     psi = 0.574*[#   5]+0.215*[#   3]+0.072*[#   4]+0.024*[#   9]+0.016*[#   6]
          +0.009*[#   7]+0.008*[#   2]+0.003*[#   8]
    |psi|^2 = 0.921
==== e(   7) =    15.26952 eV ==== 
     psi = 0.419*[#   3]+0.280*[#   5]+0.140*[#   4]+0.065*[#   7]+0.043*[#   9]
          +0.022*[#   8]
    |psi|^2 = 0.968
==== e(   8) =    19.15062 eV ==== 
     psi = 0.814*[#   2]+0.025*[#   1]+0.016*[#   5]+0.007*[#   6]+0.006*[#   3]
          +0.004*[#   9]+0.002*[#   4]+0.001*[#   7]
    |psi|^2 = 0.876
==== e(   9) =    19.93802 eV ==== 
     psi = 0.695*[#   4]+0.232*[#   3]+0.026*[#   8]+0.009*[#   7]
    |psi|^2 = 0.961

 k =   0.3536270399 -0.2245365598  0.6125000000
==== e(   1) =   -41.18467 eV ==== 
     psi = 0.970*[#   1]+0.025*[#   2]+0.002*[#   9]
[...]
          
    |psi|^2 = 1.000
==== e(   3) =    -2.16045 eV ==== 
     psi = 0.427*[#   7]+0.285*[#   9]+0.142*[#   8]+0.072*[#   3]+0.048*[#   5]
          +0.024*[#   4]
    |psi|^2 = 0.999
==== e(   4) =    -0.72928 eV ==== 
     psi = 0.629*[#   8]+0.314*[#   9]+0.038*[#   4]+0.019*[#   5]
    |psi|^2 = 0.999
==== e(   5) =    -0.34508 eV ==== 
     psi = 0.483*[#   7]+0.322*[#   9]+0.161*[#   8]+0.012*[#   3]+0.008*[#   5]
          +0.007*[#   2]+0.004*[#   4]
    |psi|^2 = 0.999
==== e(   6) =    15.18272 eV ==== 
     psi = 0.418*[#   3]+0.278*[#   5]+0.139*[#   4]+0.072*[#   7]+0.048*[#   9]
          +0.024*[#   8]
    |psi|^2 = 0.978
==== e(   7) =    16.25776 eV ==== 
     psi = 0.450*[#   4]+0.225*[#   5]+0.026*[#   8]+0.013*[#   9]
    |psi|^2 = 0.714
==== e(   8) =    18.10416 eV ==== 
     psi = 0.388*[#   2]+0.260*[#   3]+0.173*[#   5]+0.087*[#   4]+0.021*[#   6]
          +0.018*[#   1]+0.002*[#   7]+0.002*[#   9]
    |psi|^2 = 0.952
==== e(   9) =    20.38672 eV ==== 
     psi = 0.532*[#   2]+0.197*[#   3]+0.131*[#   5]+0.066*[#   4]+0.014*[#   7]
          +0.011*[#   1]+0.009*[#   9]+0.005*[#   8]
    |psi|^2 = 0.964

 k =   0.2309401077 -0.3265986324  0.6000000000
==== e(   1) =   -41.17074 eV ==== 
     psi = 0.969*[#   1]+0.027*[#   2]
    |psi|^2 = 0.999
==== e(   2) =   -19.20771 eV ==== 
     psi = 0.977*[#   6]+0.009*[#   2]+0.007*[#   3]+0.005*[#   5]+0.002*[#   4]
          
    |psi|^2 = 1.000
==== e(   3) =    -2.18774 eV ==== 
     psi = 0.426*[#   7]+0.284*[#   9]+0.142*[#   8]+0.074*[#   3]+0.049*[#   5]
          +0.025*[#   4]
    |psi|^2 = 0.999
==== e(   4) =    -0.69528 eV ==== 
     psi = 0.630*[#   8]+0.315*[#   9]+0.037*[#   4]+0.018*[#   5]
    |psi|^2 = 0.999
==== e(   5) =    -0.35766 eV ==== 
     psi = 0.482*[#   7]+0.321*[#   9]+0.161*[#   8]+0.014*[#   3]+0.009*[#   5]
          +0.007*[#   2]+0.005*[#   4]
    |psi|^2 = 0.999
==== e(   6) =    15.17737 eV ==== 
     psi = 0.417*[#   3]+0.278*[#   5]+0.139*[#   4]+0.073*[#   7]+0.049*[#   9]
          +0.024*[#   8]
    |psi|^2 = 0.979
==== e(   7) =    16.32877 eV ==== 
     psi = 0.421*[#   4]+0.211*[#   5]+0.024*[#   8]+0.012*[#   9]
    |psi|^2 = 0.668
==== e(   8) =    18.15203 eV ==== 
     psi = 0.441*[#   2]+0.235*[#   3]+0.157*[#   5]+0.078*[#   4]+0.020*[#   6]
          +0.019*[#   1]+0.002*[#   7]+0.002*[#   9]
    |psi|^2 = 0.955
==== e(   9) =    20.38804 eV ==== 
     psi = 0.480*[#   2]+0.223*[#   3]+0.149*[#   5]+0.074*[#   4]+0.014*[#   7]
          +0.010*[#   9]+0.009*[#   1]+0.005*[#   8]
    |psi|^2 = 0.965

 k =   0.2357513599 -0.3334027705  0.5916666667
==== e(   1) =   -41.17079 eV ==== 
     psi = 0.969*[#   1]+0.027*[#   2]
    |psi|^2 = 0.999
==== e(   2) =   -19.20654 eV ==== 
     psi = 0.978*[#   6]+0.009*[#   2]+0.006*[#   3]+0.004*[#   5]+0.002*[#   4]
          
    |psi|^2 = 1.000
==== e(   3) =    -2.21298 eV ==== 
     psi = 0.425*[#   7]+0.283*[#   9]+0.142*[#   8]+0.075*[#   3]+0.050*[#   5]
          +0.025*[#   4]
    |psi|^2 = 0.999
==== e(   4) =    -0.66334 eV ==== 
     psi = 0.630*[#   8]+0.315*[#   9]+0.036*[#   4]+0.018*[#   5]
    |psi|^2 = 0.999
==== e(   5) =    -0.36963 eV ==== 
     psi = 0.481*[#   7]+0.321*[#   9]+0.160*[#   8]+0.015*[#   3]+0.010*[#   5]
          +0.006*[#   2]+0.005*[#   4]
    |psi|^2 = 0.999
==== e(   6) =    15.17276 eV ==== 
     psi = 0.416*[#   3]+0.277*[#   5]+0.139*[#   4]+0.074*[#   7]+0.049*[#   9]
          +0.025*[#   8]
    |psi|^2 = 0.979
==== e(   7) =    16.40060 eV ==== 
     psi = 0.389*[#   4]+0.195*[#   5]+0.021*[#   8]+0.011*[#   9]
    |psi|^2 = 0.616
==== e(   8) =    18.19845 eV ==== 
     psi = 0.495*[#   2]+0.209*[#   3]+0.139*[#   5]+0.070*[#   4]+0.021*[#   1]
          +0.019*[#   6]+0.002*[#   7]+0.002*[#   9]
    |psi|^2 = 0.958
==== e(   9) =    20.38965 eV ==== 
     psi = 0.426*[#   2]+0.251*[#   3]+0.167*[#   5]+0.084*[#   4]+0.015*[#   7]
          +0.010*[#   9]+0.008*[#   1]+0.005*[#   8]
    |psi|^2 = 0.967

 k =   0.2405626122 -0.3402069087  0.5833333333
==== e(   1) =   -41.17067 eV ==== 
     psi = 0.969*[#   1]+0.028*[#   2]
    |psi|^2 = 0.999
==== e(   2) =   -19.20539 eV ==== 
     psi = 0.979*[#   6]+0.010*[#   2]+0.005*[#   3]+0.003*[#   5]+0.002*[#   4]
          
    |psi|^2 = 1.000
==== e(   3) =    -2.23613 eV ==== 
     psi = 0.424*[#   7]+0.282*[#   9]+0.141*[#   8]+0.076*[#   3]+0.051*[#   5]
          +0.025*[#   4]
    |psi|^2 = 0.999
==== e(   4) =    -0.63359 eV ==== 
     psi = 0.631*[#   8]+0.316*[#   9]+0.035*[#   4]+0.018*[#   5]
    |psi|^2 = 0.999
==== e(   5) =    -0.38087 eV ==== 
     psi = 0.481*[#   7]+0.320*[#   9]+0.160*[#   8]+0.016*[#   3]+0.011*[#   5]
          +0.005*[#   4]+0.005*[#   2]
    |psi|^2 = 0.999
==== e(   6) =    15.16884 eV ==== 
     psi = 0.415*[#   3]+0.277*[#   5]+0.138*[#   4]+0.075*[#   7]+0.050*[#   9]
          +0.025*[#   8]
    |psi|^2 = 0.980
==== e(   7) =    16.47258 eV ==== 
     psi = 0.353*[#   4]+0.177*[#   5]+0.019*[#   8]+0.009*[#   9]
    |psi|^2 = 0.558
==== e(   8) =    18.24292 eV ==== 
     psi = 0.551*[#   2]+0.182*[#   3]+0.122*[#   5]+0.061*[#   4]+0.022*[#   1]
          +0.018*[#   6]+0.002*[#   7]+0.001*[#   9]
    |psi|^2 = 0.960
==== e(   9) =    20.39152 eV ==== 
     psi = 0.371*[#   2]+0.279*[#   3]+0.186*[#   5]+0.093*[#   4]+0.016*[#   7]
          +0.011*[#   9]+0.007*[#   1]+0.005*[#   8]
    |psi|^2 = 0.969

 k =   0.2453738644 -0.3470110469  0.5750000000
==== e(   1) =   -41.13799 eV ==== 
     psi = 0.969*[#   1]+0.028*[#   2]
    |psi|^2 = 0.999
==== e(   2) =   -19.20084 eV ==== 
     psi = 0.980*[#   6]+0.011*[#   2]+0.004*[#   3]+0.003*[#   5]+0.001*[#   4]
          
    |psi|^2 = 1.000
==== e(   3) =    -2.19853 eV ==== 
     psi = 0.421*[#   7]+0.281*[#   9]+0.140*[#   8]+0.078*[#   3]+0.052*[#   5]
          +0.026*[#   4]
    |psi|^2 = 0.999
==== e(   4) =    -0.60357 eV ==== 
     psi = 0.632*[#   8]+0.316*[#   9]+0.034*[#   4]+0.017*[#   5]
    |psi|^2 = 0.999
==== e(   5) =    -0.39007 eV ==== 
     psi = 0.480*[#   7]+0.320*[#   9]+0.160*[#   8]+0.017*[#   3]+0.012*[#   5]
          +0.006*[#   4]+0.004*[#   2]
    |psi|^2 = 0.999
==== e(   6) =    15.26639 eV ==== 
     psi = 0.413*[#   3]+0.275*[#   5]+0.138*[#   4]+0.078*[#   7]+0.052*[#   9]
          +0.026*[#   8]
    |psi|^2 = 0.981
==== e(   7) =    16.54419 eV ==== 
     psi = 0.313*[#   4]+0.157*[#   5]+0.016*[#   8]+0.008*[#   9]
    |psi|^2 = 0.494
==== e(   8) =    18.29561 eV ==== 
     psi = 0.603*[#   2]+0.158*[#   3]+0.105*[#   5]+0.053*[#   4]+0.023*[#   1]
          +0.017*[#   6]+0.002*[#   7]+0.001*[#   9]
    |psi|^2 = 0.962
==== e(   9) =    20.40608 eV ==== 
     psi = 0.320*[#   2]+0.304*[#   3]+0.203*[#   5]+0.101*[#   4]+0.017*[#   7]
          +0.012*[#   9]+0.006*[#   1]+0.006*[#   8]
    |psi|^2 = 0.970

 k =   0.2501851166 -0.3538151851  0.5666666667
==== e(   1) =   -41.13767 eV ==== 
     psi = 0.969*[#   1]+0.028*[#   2]
    |psi|^2 = 0.999
==== e(   2) =   -19.19977 eV ==== 
     psi = 0.981*[#   6]+0.011*[#   2]+0.003*[#   3]+0.002*[#   5]+0.001*[#   4]
          
    |psi|^2 = 1.000
==== e(   3) =    -2.21783 eV ==== 
     psi = 0.420*[#   7]+0.280*[#   9]+0.140*[#   8]+0.079*[#   3]+0.053*[#   5]
          +0.026*[#   4]
    |psi|^2 = 0.999
==== e(   4) =    -0.57852 eV ==== 
     psi = 0.633*[#   8]+0.316*[#   9]+0.034*[#   4]+0.017*[#   5]
    |psi|^2 = 0.999
==== e(   5) =    -0.39937 eV ==== 
     psi = 0.479*[#   7]+0.319*[#   9]+0.160*[#   8]+0.018*[#   3]+0.012*[#   5]
          +0.006*[#   4]+0.003*[#   2]
    |psi|^2 = 0.999
==== e(   6) =    15.26366 eV ==== 
     psi = 0.412*[#   3]+0.275*[#   5]+0.137*[#   4]+0.078*[#   7]+0.052*[#   9]
          +0.026*[#   8]
    |psi|^2 = 0.981
==== e(   7) =    16.61384 eV ==== 
     psi = 0.270*[#   4]+0.135*[#   5]+0.014*[#   8]+0.007*[#   9]
    |psi|^2 = 0.426
==== e(   8) =    18.33572 eV ==== 
     psi = 0.658*[#   2]+0.131*[#   3]+0.087*[#   5]+0.044*[#   4]+0.025*[#   1]
          +0.016*[#   6]+0.002*[#   7]+0.001*[#   9]
    |psi|^2 = 0.964
==== e(   9) =    20.40681 eV ==== 
     psi = 0.332*[#   3]+0.265*[#   2]+0.222*[#   5]+0.111*[#   4]+0.019*[#   7]
          +0.012*[#   9]+0.006*[#   8]+0.005*[#   1]
    |psi|^2 = 0.972

 k =   0.2549963689 -0.3606193232  0.5583333333
==== e(   1) =   -41.13718 eV ==== 
     psi = 0.969*[#   1]+0.029*[#   2]
    |psi|^2 = 0.999
==== e(   2) =   -19.19877 eV ==== 
     psi = 0.982*[#   6]+0.012*[#   2]+0.003*[#   3]+0.002*[#   5]
    |psi|^2 = 1.000
==== e(   3) =    -2.23491 eV ==== 
     psi = 0.419*[#   7]+0.280*[#   9]+0.140*[#   8]+0.080*[#   3]+0.053*[#   5]
          +0.027*[#   4]
    |psi|^2 = 0.999
==== e(   4) =    -0.55595 eV ==== 
     psi = 0.633*[#   8]+0.317*[#   9]+0.033*[#   4]+0.017*[#   5]
    |psi|^2 = 0.999
==== e(   5) =    -0.40763 eV ==== 
     psi = 0.479*[#   7]+0.319*[#   9]+0.160*[#   8]+0.020*[#   3]+0.013*[#   5]
          +0.007*[#   4]+0.003*[#   2]
    |psi|^2 = 0.999
==== e(   6) =    15.26142 eV ==== 
     psi = 0.412*[#   3]+0.274*[#   5]+0.137*[#   4]+0.079*[#   7]+0.053*[#   9]
          +0.026*[#   8]
    |psi|^2 = 0.982
==== e(   7) =    16.68069 eV ==== 
     psi = 0.225*[#   4]+0.113*[#   5]+0.011*[#   8]+0.006*[#   9]
    |psi|^2 = 0.355
==== e(   8) =    18.37251 eV ==== 
     psi = 0.712*[#   2]+0.105*[#   3]+0.070*[#   5]+0.035*[#   4]+0.026*[#   1]
          +0.015*[#   6]+0.001*[#   7]
    |psi|^2 = 0.965
==== e(   9) =    20.40774 eV ==== 
     psi = 0.359*[#   3]+0.240*[#   5]+0.212*[#   2]+0.120*[#   4]+0.020*[#   7]
          +0.013*[#   9]+0.007*[#   8]+0.004*[#   1]
    |psi|^2 = 0.974

 k =   0.2598076211 -0.3674234614  0.5500000000
==== e(   1) =   -41.13651 eV ==== 
     psi = 0.969*[#   1]+0.029*[#   2]
    |psi|^2 = 0.999
==== e(   2) =   -19.19785 eV ==== 
     psi = 0.983*[#   6]+0.013*[#   2]+0.002*[#   3]+0.001*[#   5]
    |psi|^2 = 1.000
==== e(   3) =    -2.24972 eV ==== 
     psi = 0.419*[#   7]+0.279*[#   9]+0.140*[#   8]+0.081*[#   3]+0.054*[#   5]
          +0.027*[#   4]
    |psi|^2 = 0.999
==== e(   4) =    -0.53597 eV ==== 
     psi = 0.634*[#   8]+0.317*[#   9]+0.033*[#   4]+0.016*[#   5]
    |psi|^2 = 1.000
==== e(   5) =    -0.41477 eV ==== 
     psi = 0.478*[#   7]+0.319*[#   9]+0.159*[#   8]+0.021*[#   3]+0.014*[#   5]
          +0.007*[#   4]+0.002*[#   2]
    |psi|^2 = 0.999
==== e(   6) =    15.25963 eV ==== 
     psi = 0.411*[#   3]+0.274*[#   5]+0.137*[#   4]+0.080*[#   7]+0.053*[#   9]
          +0.027*[#   8]
    |psi|^2 = 0.983
==== e(   7) =    16.74337 eV ==== 
     psi = 0.179*[#   4]+0.090*[#   5]+0.009*[#   8]+0.004*[#   9]
    |psi|^2 = 0.282
==== e(   8) =    18.40555 eV ==== 
     psi = 0.762*[#   2]+0.080*[#   3]+0.053*[#   5]+0.027*[#   1]+0.027*[#   4]
          +0.015*[#   6]+0.001*[#   7]
    |psi|^2 = 0.966
==== e(   9) =    20.40885 eV ==== 
     psi = 0.385*[#   3]+0.256*[#   5]+0.162*[#   2]+0.128*[#   4]+0.020*[#   7]
          +0.014*[#   9]+0.007*[#   8]+0.003*[#   1]
    |psi|^2 = 0.975

 k =   0.2646188734 -0.3742275996  0.5416666667
==== e(   1) =   -41.13567 eV ==== 
     psi = 0.969*[#   1]+0.029*[#   2]
    |psi|^2 = 0.999
==== e(   2) =   -19.19700 eV ==== 
     psi = 0.984*[#   6]+0.013*[#   2]+0.001*[#   3]
    |psi|^2 = 1.000
==== e(   3) =    -2.26226 eV ==== 
     psi = 0.418*[#   7]+0.279*[#   9]+0.139*[#   8]+0.082*[#   3]+0.054*[#   5]
          +0.027*[#   4]
    |psi|^2 = 0.999
==== e(   4) =    -0.51864 eV ==== 
     psi = 0.634*[#   8]+0.317*[#   9]+0.032*[#   4]+0.016*[#   5]
    |psi|^2 = 1.000
==== e(   5) =    -0.42071 eV ==== 
     psi = 0.477*[#   7]+0.318*[#   9]+0.159*[#   8]+0.021*[#   3]+0.014*[#   5]
          +0.007*[#   4]+0.001*[#   2]
    |psi|^2 = 0.999
==== e(   6) =    15.25825 eV ==== 
     psi = 0.411*[#   3]+0.274*[#   5]+0.137*[#   4]+0.081*[#   7]+0.054*[#   9]
          +0.027*[#   8]
    |psi|^2 = 0.983
==== e(   7) =    16.80035 eV ==== 
     psi = 0.133*[#   4]+0.067*[#   5]+0.007*[#   8]+0.003*[#   9]
    |psi|^2 = 0.210
==== e(   8) =    18.43449 eV ==== 
     psi = 0.808*[#   2]+0.058*[#   3]+0.038*[#   5]+0.028*[#   1]+0.019*[#   4]
          +0.014*[#   6]
    |psi|^2 = 0.967
==== e(   9) =    20.41010 eV ==== 
     psi = 0.408*[#   3]+0.272*[#   5]+0.136*[#   4]+0.117*[#   2]+0.021*[#   7]
          +0.014*[#   9]+0.007*[#   8]+0.002*[#   1]
    |psi|^2 = 0.977

 k =   0.2694301256 -0.3810317378  0.5333333333
==== e(   1) =   -41.13466 eV ==== 
     psi = 0.969*[#   1]+0.029*[#   2]
    |psi|^2 = 0.999
==== e(   2) =   -19.19625 eV ==== 
     psi = 0.984*[#   6]+0.013*[#   2]
    |psi|^2 = 1.000
==== e(   3) =    -2.27249 eV ==== 
     psi = 0.418*[#   7]+0.278*[#   9]+0.139*[#   8]+0.082*[#   3]+0.055*[#   5]
          +0.027*[#   4]
    |psi|^2 = 0.999
==== e(   4) =    -0.50403 eV ==== 
     psi = 0.635*[#   8]+0.317*[#   9]+0.032*[#   4]+0.016*[#   5]
    |psi|^2 = 1.000
==== e(   5) =    -0.42540 eV ==== 
     psi = 0.477*[#   7]+0.318*[#   9]+0.159*[#   8]+0.022*[#   3]+0.015*[#   5]
          +0.007*[#   4]
    |psi|^2 = 0.999
==== e(   6) =    15.25727 eV ==== 
     psi = 0.411*[#   3]+0.274*[#   5]+0.137*[#   4]+0.081*[#   7]+0.054*[#   9]
          +0.027*[#   8]
    |psi|^2 = 0.984
==== e(   7) =    16.84994 eV ==== 
     psi = 0.091*[#   4]+0.045*[#   5]+0.004*[#   8]+0.002*[#   9]
    |psi|^2 = 0.143
==== e(   8) =    18.45900 eV ==== 
     psi = 0.848*[#   2]+0.038*[#   3]+0.028*[#   1]+0.025*[#   5]+0.014*[#   6]
          +0.013*[#   4]
    |psi|^2 = 0.967
==== e(   9) =    20.41148 eV ==== 
     psi = 0.428*[#   3]+0.285*[#   5]+0.143*[#   4]+0.077*[#   2]+0.022*[#   7]
          +0.015*[#   9]+0.007*[#   8]+0.001*[#   1]
    |psi|^2 = 0.978

 k =   0.2742413779 -0.3878358759  0.5250000000
==== e(   1) =   -41.14939 eV ==== 
     psi = 0.969*[#   1]+0.029*[#   2]
    |psi|^2 = 0.999
==== e(   2) =   -19.19653 eV ==== 
     psi = 0.985*[#   6]+0.014*[#   2]
    |psi|^2 = 1.000
==== e(   3) =    -2.28144 eV ==== 
     psi = 0.417*[#   7]+0.278*[#   9]+0.139*[#   8]+0.082*[#   3]+0.055*[#   5]
          +0.027*[#   4]
    |psi|^2 = 0.999
==== e(   4) =    -0.49219 eV ==== 
     psi = 0.635*[#   8]+0.317*[#   9]+0.031*[#   4]+0.016*[#   5]
    |psi|^2 = 1.000
==== e(   5) =    -0.46991 eV ==== 
     psi = 0.477*[#   7]+0.318*[#   9]+0.159*[#   8]+0.022*[#   3]+0.015*[#   5]
          +0.007*[#   4]
    |psi|^2 = 0.999
==== e(   6) =    15.25571 eV ==== 
     psi = 0.410*[#   3]+0.274*[#   5]+0.137*[#   4]+0.082*[#   7]+0.054*[#   9]
          +0.027*[#   8]
    |psi|^2 = 0.984
==== e(   7) =    16.89045 eV ==== 
     psi = 0.054*[#   4]+0.027*[#   5]+0.003*[#   8]+0.001*[#   9]
    |psi|^2 = 0.084
==== e(   8) =    18.46855 eV ==== 
     psi = 0.885*[#   2]+0.029*[#   1]+0.020*[#   3]+0.013*[#   5]+0.013*[#   6]
          +0.007*[#   4]
    |psi|^2 = 0.967
==== e(   9) =    20.36569 eV ==== 
     psi = 0.447*[#   3]+0.298*[#   5]+0.149*[#   4]+0.041*[#   2]+0.022*[#   7]
          +0.015*[#   9]+0.007*[#   8]
    |psi|^2 = 0.979

 k =   0.2790526301 -0.3946400141  0.5166666667
==== e(   1) =   -41.11385 eV ==== 
     psi = 0.969*[#   1]+0.030*[#   2]
    |psi|^2 = 0.999
==== e(   2) =   -19.19222 eV ==== 
     psi = 0.985*[#   6]+0.014*[#   2]
    |psi|^2 = 1.000
==== e(   3) =    -2.28050 eV ==== 
     psi = 0.417*[#   7]+0.278*[#   9]+0.139*[#   8]+0.083*[#   3]+0.055*[#   5]
          +0.028*[#   4]
    |psi|^2 = 0.999
==== e(   4) =    -0.44825 eV ==== 
     psi = 0.477*[#   7]+0.318*[#   9]+0.159*[#   8]+0.023*[#   3]+0.015*[#   5]
          +0.008*[#   4]
    |psi|^2 = 1.000
==== e(   5) =    -0.41550 eV ==== 
     psi = 0.635*[#   8]+0.317*[#   9]+0.032*[#   4]+0.016*[#   5]
    |psi|^2 = 1.000
==== e(   6) =    15.26754 eV ==== 
     psi = 0.410*[#   3]+0.273*[#   5]+0.137*[#   4]+0.082*[#   7]+0.055*[#   9]
          +0.027*[#   8]
    |psi|^2 = 0.984
==== e(   7) =    16.92066 eV ==== 
     psi = 0.025*[#   4]+0.012*[#   5]+0.001*[#   8]
    |psi|^2 = 0.039
==== e(   8) =    18.48906 eV ==== 
     psi = 0.907*[#   2]+0.029*[#   1]+0.013*[#   6]+0.009*[#   3]+0.006*[#   5]
          +0.003*[#   4]
    |psi|^2 = 0.968
==== e(   9) =    20.37633 eV ==== 
     psi = 0.458*[#   3]+0.305*[#   5]+0.153*[#   4]+0.023*[#   7]+0.019*[#   2]
          +0.015*[#   9]+0.008*[#   8]
    |psi|^2 = 0.980

 k =   0.2838638824 -0.4014441523  0.5083333333
==== e(   1) =   -41.08033 eV ==== 
     psi = 0.969*[#   1]+0.030*[#   2]
    |psi|^2 = 0.999
==== e(   2) =   -19.18832 eV ==== 
     psi = 0.985*[#   6]+0.014*[#   2]
    |psi|^2 = 1.000
==== e(   3) =    -2.27744 eV ==== 
     psi = 0.416*[#   7]+0.278*[#   9]+0.139*[#   8]+0.083*[#   3]+0.055*[#   5]
          +0.028*[#   4]
    |psi|^2 = 0.999
==== e(   4) =    -0.38593 eV ==== 
     psi = 0.635*[#   8]+0.317*[#   9]+0.032*[#   4]+0.016*[#   5]
    |psi|^2 = 1.000
==== e(   5) =    -0.38381 eV ==== 
     psi = 0.476*[#   7]+0.318*[#   9]+0.159*[#   8]+0.024*[#   3]+0.016*[#   5]
          +0.008*[#   4]
    |psi|^2 = 1.000
==== e(   6) =    15.27932 eV ==== 
     psi = 0.410*[#   3]+0.273*[#   5]+0.137*[#   4]+0.082*[#   7]+0.055*[#   9]
          +0.027*[#   8]
    |psi|^2 = 0.985
==== e(   7) =    16.94037 eV ==== 
     psi = 0.006*[#   4]+0.003*[#   5]
    |psi|^2 = 0.010
==== e(   8) =    18.50407 eV ==== 
     psi = 0.922*[#   2]+0.030*[#   1]+0.013*[#   6]+0.003*[#   3]+0.002*[#   5]
          
    |psi|^2 = 0.969
==== e(   9) =    20.39799 eV ==== 
     psi = 0.464*[#   3]+0.309*[#   5]+0.155*[#   4]+0.024*[#   7]+0.016*[#   9]
          +0.008*[#   8]+0.005*[#   2]
    |psi|^2 = 0.980

 k =   0.2886751346 -0.4082482905  0.5000000000
==== e(   1) =   -41.08042 eV ==== 
     psi = 0.969*[#   1]+0.030*[#   2]
    |psi|^2 = 0.999
==== e(   2) =   -19.18826 eV ==== 
     psi = 0.985*[#   6]+0.014*[#   2]
    |psi|^2 = 1.000
==== e(   3) =    -2.27863 eV ==== 
     psi = 0.416*[#   7]+0.278*[#   9]+0.139*[#   8]+0.083*[#   3]+0.056*[#   5]
          +0.028*[#   4]
    |psi|^2 = 0.999
==== e(   4) =    -0.38449 eV ==== 
     psi = 0.693*[#   8]+0.258*[#   7]+0.034*[#   4]+0.013*[#   3]+0.001*[#   9]
          
    |psi|^2 = 1.000
==== e(   5) =    -0.38449 eV ==== 
     psi = 0.634*[#   9]+0.218*[#   7]+0.101*[#   8]+0.031*[#   5]+0.011*[#   3]
          +0.005*[#   4]
    |psi|^2 = 1.000
==== e(   6) =    15.27915 eV ==== 
     psi = 0.410*[#   3]+0.273*[#   5]+0.137*[#   4]+0.083*[#   7]+0.055*[#   9]
          +0.028*[#   8]
    |psi|^2 = 0.985
==== e(   7) =    16.94676 eV ==== 

    |psi|^2 = 0.000
==== e(   8) =    18.50682 eV ==== 
     psi = 0.927*[#   2]+0.030*[#   1]+0.013*[#   6]
    |psi|^2 = 0.969
==== e(   9) =    20.39771 eV ==== 
     psi = 0.589*[#   5]+0.209*[#   3]+0.135*[#   4]+0.030*[#   9]+0.011*[#   7]
          +0.007*[#   8]
    |psi|^2 = 0.981

Lowdin Charges: 

     Atom #   1: total charge =   2.5626, s =  2.0982, p =  0.4644, 
                 spin up      =   1.2813, s =  1.0491, 
                 spin up      =   1.2813, p =  0.2322, pz=  0.1194, px=  0.0542, py=  0.0587, 
                 spin down    =   1.2813, s =  1.0491, 
                 spin down    =   1.2813, p =  0.2322, pz=  0.1194, px=  0.0542, py=  0.0587, 
                 polarization =   0.0000, s =  0.0000, p =  0.0000, 
     Atom #   2: total charge =   7.4290, s =  1.7637, p =  5.6653, 
                 spin up      =   3.7145, s =  0.8819, 
                 spin up      =   3.7145, p =  2.8326, pz=  0.9276, px=  0.9541, py=  0.9509, 
                 spin down    =   3.7145, s =  0.8819, 
                 spin down    =   3.7145, p =  2.8326, pz=  0.9277, px=  0.9541, py=  0.9509, 
                 polarization =  -0.0000, s = -0.0000, p = -0.0000, 
     Spilling Parameter:   0.0008

     PROJWFC      :     36.56s CPU     38.04s WALL


   This run was terminated on:  17:36:58  26Jun2020            

=------------------------------------------------------------------------------=
   JOB DONE.
=------------------------------------------------------------------------------=
