
     Program PWSCF v.6.5 starts on 26Jun2020 at 17:33:40 

     This program is part of the open-source Quantum ESPRESSO suite
     for quantum simulation of materials; please cite
         "P. Giannozzi et al., J. Phys.:Condens. Matter 21 395502 (2009);
         "P. Giannozzi et al., J. Phys.:Condens. Matter 29 465901 (2017);
          URL http://www.quantum-espresso.org", 
     in publications or presentations arising from this work. More details at
     http://www.quantum-espresso.org/quote

     Serial version
     Waiting for input...
     Reading input from standard input

     Current dimensions of program PWSCF are:
     Max number of different atomic species (ntypx) = 10
     Max number of k-points (npk) =  40000
     Max angular momentum in pseudopotentials (lmaxx) =  3
               file F.pbe-n-kjpaw_psl.1.0.0.UPF: wavefunction(s)  2S 2P renormalized

     G-vector sticks info
     --------------------
     sticks:   dense  smooth     PW     G-vecs:    dense   smooth      PW
     Sum        2563     199     85                85851     1917     459



     bravais-lattice index     =            0
     lattice parameter (alat)  =       5.4564  a.u.
     unit-cell volume          =     114.8712 (a.u.)^3
     number of atoms/cell      =            2
     number of atomic types    =            2
     number of electrons       =        10.00
     number of Kohn-Sham states=            9
     kinetic-energy cutoff     =      25.0000  Ry
     charge density cutoff     =    1250.0000  Ry
     convergence threshold     =      1.0E-08
     mixing beta               =       0.7000
     number of iterations used =            8  plain     mixing
     Exchange-correlation= SLA PW PBX PBC
                           (   1   4   3   4   0   0   0)

     celldm(1)=   5.456431  celldm(2)=   0.000000  celldm(3)=   0.000000
     celldm(4)=   0.000000  celldm(5)=   0.000000  celldm(6)=   0.000000

     crystal axes: (cart. coord. in units of alat)
               a(1) = (   0.866025   0.000000   0.500000 )  
               a(2) = (   0.288675   0.816497   0.500000 )  
               a(3) = (   0.000000   0.000000   1.000000 )  

     reciprocal axes: (cart. coord. in units 2 pi/alat)
               b(1) = (  1.154701 -0.408248  0.000000 )  
               b(2) = (  0.000000  1.224745  0.000000 )  
               b(3) = ( -0.577350 -0.408248  1.000000 )  


     PseudoPot. # 1 for F  read from file:
     ./F.pbe-n-kjpaw_psl.1.0.0.UPF
     MD5 check sum: 66d718ea72839a4268ab2a9540e8cdd4
     Pseudo is Projector augmented-wave + core cor, Zval =  7.0
     Generated using "atomic" code by A. Dal Corso v.6.3
     Shape of augmentation charge: PSQ
     Using radial grid of 1105 points,  4 beta functions with: 
                l(1) =   0
                l(2) =   0
                l(3) =   1
                l(4) =   1
     Q(r) pseudized with 0 coefficients 


     PseudoPot. # 2 for Li read from file:
     ./Li.pbe-s-kjpaw_psl.1.0.0.UPF
     MD5 check sum: 3974953fb0fea6c4f83fb01d64ffc134
     Pseudo is Projector augmented-wave, Zval =  3.0
     Generated using "atomic" code by A. Dal Corso v.6.3
     Shape of augmentation charge: PSQ
     Using radial grid of 1017 points,  4 beta functions with: 
                l(1) =   0
                l(2) =   0
                l(3) =   1
                l(4) =   1
     Q(r) pseudized with 0 coefficients 


     atomic species   valence    mass     pseudopotential
        F              7.00    18.99840     F ( 1.00)
        Li             3.00     6.94100     Li( 1.00)

     Starting magnetic structure 
     atomic species   magnetization
        F            0.700
        Li           0.000

     No symmetry found



   Cartesian axes

     site n.     atom                  positions (alat units)
         1           Li  tau(   1) = (   0.0000000   0.0000000   0.0000000  )
         2           F   tau(   2) = (   0.5773503   0.4082483   1.0000000  )

     number of k points=   172  Marzari-Vanderbilt smearing, width (Ry)=  0.0050

     Number of k-points >= 100: set verbosity='high' to print them.

     Dense  grid:    85851 G-vectors     FFT dimensions: (  64,  64,  64)

     Smooth grid:     1917 G-vectors     FFT dimensions: (  18,  18,  18)

     Estimated max dynamical RAM per process >     172.27 MB
     Generating pointlists ...
     new r_m :   0.2917 (alat units)  1.5915 (a.u.) for type    1
     new r_m :   0.2917 (alat units)  1.5915 (a.u.) for type    2

     Initial potential from superposition of free atoms

     starting charge    9.99539, renormalised to   10.00000
     Starting wfcs are    9 randomized atomic wfcs

     total cpu time spent up to now is        4.1 secs

     Self-consistent Calculation

     iteration #  1     ecut=    25.00 Ry     beta= 0.70
     Davidson diagonalization with overlap
     ethr =  1.00E-02,  avg # of iterations =  2.9

     total cpu time spent up to now is        8.0 secs

     total energy              =     -74.24700788 Ry
     Harris-Foulkes estimate   =     -73.65286226 Ry
     estimated scf accuracy    <       0.60162801 Ry

     total magnetization       =    -0.00 Bohr mag/cell
     absolute magnetization    =     0.80 Bohr mag/cell

     iteration #  2     ecut=    25.00 Ry     beta= 0.70
     Davidson diagonalization with overlap
     ethr =  6.02E-03,  avg # of iterations =  1.0

     total cpu time spent up to now is       11.1 secs

     total energy              =     -74.33950986 Ry
     Harris-Foulkes estimate   =     -74.26902789 Ry
     estimated scf accuracy    <       0.08245433 Ry

     total magnetization       =    -0.00 Bohr mag/cell
     absolute magnetization    =     0.36 Bohr mag/cell

     iteration #  3     ecut=    25.00 Ry     beta= 0.70
     Davidson diagonalization with overlap
     ethr =  8.25E-04,  avg # of iterations =  1.1

     total cpu time spent up to now is       14.2 secs

     total energy              =     -74.35000389 Ry
     Harris-Foulkes estimate   =     -74.34903930 Ry
     estimated scf accuracy    <       0.00074630 Ry

     total magnetization       =     0.00 Bohr mag/cell
     absolute magnetization    =     0.05 Bohr mag/cell

     iteration #  4     ecut=    25.00 Ry     beta= 0.70
     Davidson diagonalization with overlap
     ethr =  7.46E-06,  avg # of iterations =  2.2

     total cpu time spent up to now is       17.8 secs

     total energy              =     -74.35037414 Ry
     Harris-Foulkes estimate   =     -74.35062331 Ry
     estimated scf accuracy    <       0.00073928 Ry

     total magnetization       =    -0.00 Bohr mag/cell
     absolute magnetization    =     0.01 Bohr mag/cell

     iteration #  5     ecut=    25.00 Ry     beta= 0.70
     Davidson diagonalization with overlap
     ethr =  7.39E-06,  avg # of iterations =  1.5

     total cpu time spent up to now is       20.9 secs

     total energy              =     -74.35046838 Ry
     Harris-Foulkes estimate   =     -74.35046982 Ry
     estimated scf accuracy    <       0.00003278 Ry

     total magnetization       =    -0.00 Bohr mag/cell
     absolute magnetization    =     0.01 Bohr mag/cell

     iteration #  6     ecut=    25.00 Ry     beta= 0.70
     Davidson diagonalization with overlap
     ethr =  3.28E-07,  avg # of iterations =  1.5

     total cpu time spent up to now is       24.2 secs

     total energy              =     -74.35047923 Ry
     Harris-Foulkes estimate   =     -74.35047876 Ry
     estimated scf accuracy    <       0.00000069 Ry

     total magnetization       =     0.00 Bohr mag/cell
     absolute magnetization    =     0.00 Bohr mag/cell

     iteration #  7     ecut=    25.00 Ry     beta= 0.70
     Davidson diagonalization with overlap
     ethr =  6.89E-09,  avg # of iterations =  1.5

     Magnetic moment per site:
     atom:    1    charge:    2.1391    magn:    0.0000    constr:    0.0000
     atom:    2    charge:    6.6213    magn:   -0.0000    constr:    0.0000

     total cpu time spent up to now is       27.4 secs

     End of self-consistent calculation

     Number of k-points >= 100: set verbosity='high' to print the bands.

     the Fermi energy is     7.6405 ev

!    total energy              =     -74.35047947 Ry
     Harris-Foulkes estimate   =     -74.35047941 Ry
     estimated scf accuracy    <          3.2E-09 Ry

     total all-electron energy =      -214.763212 Ry

     The total energy is the sum of the following terms:

     one-electron contribution =     -27.30438026 Ry
     hartree contribution      =      17.60936371 Ry
     xc contribution           =     -13.18268944 Ry
     ewald contribution        =     -40.39245525 Ry
     one-center paw contrib.   =     -11.08031824 Ry
     smearing contrib. (-TS)   =       0.00000000 Ry

     total magnetization       =    -0.00 Bohr mag/cell
     absolute magnetization    =     0.00 Bohr mag/cell

     convergence has been achieved in   7 iterations

     Forces acting on atoms (cartesian axes, Ry/au):

     atom    1 type  2   force =     0.00000120    0.00000152   -0.00000131
     atom    2 type  1   force =    -0.00000120   -0.00000152    0.00000131

     Total force =     0.000003     Total SCF correction =     0.000003
     SCF correction compared to forces is large: reduce conv_thr to get better values


     Computing stress (Cartesian axis) and pressure

          total   stress  (Ry/bohr**3)                   (kbar)     P=    -1480.32
  -0.01006301  -0.00000000   0.00000000        -1480.32       -0.00        0.00
  -0.00000000  -0.01006301  -0.00000000           -0.00    -1480.32       -0.00
   0.00000000  -0.00000000  -0.01006301            0.00       -0.00    -1480.32


     Writing output data file ./LiF.save/

     init_run     :      3.23s CPU      3.32s WALL (       1 calls)
     electrons    :     22.58s CPU     23.32s WALL (       1 calls)
     forces       :      1.32s CPU      1.37s WALL (       1 calls)
     stress       :      2.92s CPU      3.02s WALL (       1 calls)

     Called by init_run:
     wfcinit      :      0.74s CPU      0.75s WALL (       1 calls)
     potinit      :      1.21s CPU      1.24s WALL (       1 calls)
     hinit0       :      1.13s CPU      1.15s WALL (       1 calls)

     Called by electrons:
     c_bands      :     12.05s CPU     12.26s WALL (       7 calls)
     sum_band     :      3.24s CPU      3.44s WALL (       7 calls)
     v_of_rho     :      5.02s CPU      5.16s WALL (       8 calls)
     newd         :      0.72s CPU      0.92s WALL (       8 calls)
     PAW_pot      :      2.19s CPU      2.20s WALL (       8 calls)
     mix_rho      :      0.21s CPU      0.21s WALL (       7 calls)

     Called by c_bands:
     init_us_2    :      0.49s CPU      0.50s WALL (    5848 calls)
     cegterg      :     11.63s CPU     11.83s WALL (    2408 calls)

     Called by sum_band:
     sum_band:bec :      0.01s CPU      0.01s WALL (    2408 calls)
     addusdens    :      0.91s CPU      1.07s WALL (       7 calls)

     Called by *egterg:
     h_psi        :      9.75s CPU      9.92s WALL (    6803 calls)
     s_psi        :      0.40s CPU      0.41s WALL (    6803 calls)
     g_psi        :      0.08s CPU      0.08s WALL (    4051 calls)
     cdiaghg      :      0.74s CPU      0.75s WALL (    6459 calls)

     Called by h_psi:
     h_psi:calbec :      0.37s CPU      0.37s WALL (    6803 calls)
     vloc_psi     :      8.94s CPU      9.09s WALL (    6803 calls)
     add_vuspsi   :      0.40s CPU      0.41s WALL (    6803 calls)

     General routines
     calbec       :      0.61s CPU      0.62s WALL (   10931 calls)
     fft          :      1.81s CPU      1.83s WALL (     238 calls)
     ffts         :      0.00s CPU      0.00s WALL (      30 calls)
     fftw         :      9.87s CPU     10.05s WALL (  126970 calls)
     interpolate  :      0.13s CPU      0.13s WALL (      16 calls)


     PWSCF        :     30.61s CPU     31.85s WALL


   This run was terminated on:  17:34:11  26Jun2020            

=------------------------------------------------------------------------------=
   JOB DONE.
=------------------------------------------------------------------------------=
