
.Version 9.2.2 of ABINIT 
.(MPI version, prepared for a x86_64_darwin20.1.0_gnu10.2 computer) 

.Copyright (C) 1998-2020 ABINIT group . 
 ABINIT comes with ABSOLUTELY NO WARRANTY.
 It is free software, and you are welcome to redistribute it
 under certain conditions (GNU General Public License,
 see ~abinit/COPYING or http://www.gnu.org/copyleft/gpl.txt).

 ABINIT is a project of the Universite Catholique de Louvain,
 Corning Inc. and other collaborators, see ~abinit/doc/developers/contributors.txt .
 Please read https://docs.abinit.org/theory/acknowledgments for suggested
 acknowledgments of the ABINIT effort.
 For more information, see https://www.abinit.org .

.Starting date : Mon 15 Feb 2021.
- ( at 22h22 )
  
- input  file    -> abinit.in
- output file    -> abinit.out
- root for input  files -> abiniti
- root for output files -> abinito

- inpspheads : Reading pseudopotential header in XML form from 
-   /Users/uthpala/abinit/pseudo-dojo/paw_pw_standard/Ni.xml
- inpspheads : Reading pseudopotential header in XML form from 
-   /Users/uthpala/abinit/pseudo-dojo/paw_pw_standard/O.xml

 DATASET    1 : space group Fm -3 m (#225); Bravais cF (face-center cubic)
================================================================================
 Values of the parameters that define the memory need for DATASET  1.
     intxc =       0    ionmov =       0      iscf =      17    lmnmax =      18
     lnmax =       6     mgfft =      27  mpssoang =       3    mqgrid =    3001
     natom =       2  nloc_mem =       2    nspden =       1   nspinor =       1
    nsppol =       1      nsym =      48    n1xccc =       1    ntypat =       2
    occopt =       1   xclevel =       1
-    mband =          15        mffmem =           1         mkmem =          91
       mpw =         736          nfft =       19683          nkpt =         182
Pmy_natom=         1
 PAW method is used; the additional fine FFT grid is defined by:
   mgfftf=        30    nfftf =     27000
================================================================================
P This job should need less than                      35.726 Mbytes of memory.
  Rough estimation (10% accuracy) of disk space for files :
_ WF disk file :     30.661 Mbytes ; DEN or POT disk file :      0.208 Mbytes.
================================================================================


 DATASET    2 : space group Fm -3 m (#225); Bravais cF (face-center cubic)
================================================================================
 Values of the parameters that define the memory need for DATASET  2.
     intxc =       0    ionmov =       0      iscf =      -2    lmnmax =      18
     lnmax =       6     mgfft =      27  mpssoang =       3    mqgrid =    3001
     natom =       2  nloc_mem =       2    nspden =       1   nspinor =       1
    nsppol =       1      nsym =      48    n1xccc =       1    ntypat =       2
    occopt =       1   xclevel =       1
-    mband =          15        mffmem =           1         mkmem =         241
       mpw =         745          nfft =       19683          nkpt =         481
Pmy_natom=         1
 PAW method is used; the additional fine FFT grid is defined by:
   mgfftf=        30    nfftf =     27000
================================================================================
P This job should need less than                      69.941 Mbytes of memory.
  Rough estimation (10% accuracy) of disk space for files :
_ WF disk file :     82.021 Mbytes ; DEN or POT disk file :      0.208 Mbytes.
================================================================================

--------------------------------------------------------------------------------
------------- Echo of variables that govern the present computation ------------
--------------------------------------------------------------------------------
-
- outvars: echo of selected default values                                      
-   iomode0 =  0 , fftalg0 =312 , wfoptalg0 = 10
-
- outvars: echo of global parameters not present in the input file              
-  max_nthreads =    4
-
 -outvars: echo values of preprocessed input variables --------
            acell      2.3144326326E+00  2.3144326326E+00  2.3144326326E+00 Bohr
              amu      5.86900000E+01  1.59994000E+01
        autoparal           1
          chkprim           0
      chksymbreak           0
           diemac      9.00000000E+00
             ecut      2.50000000E+01 Hartree
           ecutsm      5.00000000E-01 Hartree
-          fftalg         312
           getden1          0
           getden2          1
           iatsph2       1    2
             iscf1         17
             iscf2         -2
           istwfk2       2    0    0    0    0    0    0    0    0    0
                         0    0    0    0    0    0    0    0    0    0
                         0    0    0    0    0    0    0    0    0    0
                         0    0    0    0    0    0    0    0    0    0
                         0    0    0    0    0    0    0    0    0    0
                       outvar_i_n : Printing only first  50 k-points.
           jdtset        1    2
              kpt1     4.16666667E-02  4.16666667E-02  4.16666667E-02
                       1.25000000E-01  4.16666667E-02  4.16666667E-02
                       2.08333333E-01  4.16666667E-02  4.16666667E-02
                       2.91666667E-01  4.16666667E-02  4.16666667E-02
                       3.75000000E-01  4.16666667E-02  4.16666667E-02
                       4.58333333E-01  4.16666667E-02  4.16666667E-02
                      -4.58333333E-01  4.16666667E-02  4.16666667E-02
                      -3.75000000E-01  4.16666667E-02  4.16666667E-02
                      -2.91666667E-01  4.16666667E-02  4.16666667E-02
                      -2.08333333E-01  4.16666667E-02  4.16666667E-02
                      -1.25000000E-01  4.16666667E-02  4.16666667E-02
                      -4.16666667E-02  4.16666667E-02  4.16666667E-02
                       1.25000000E-01  1.25000000E-01  4.16666667E-02
                       2.08333333E-01  1.25000000E-01  4.16666667E-02
                       2.91666667E-01  1.25000000E-01  4.16666667E-02
                       3.75000000E-01  1.25000000E-01  4.16666667E-02
                       4.58333333E-01  1.25000000E-01  4.16666667E-02
                      -4.58333333E-01  1.25000000E-01  4.16666667E-02
                      -3.75000000E-01  1.25000000E-01  4.16666667E-02
                      -2.91666667E-01  1.25000000E-01  4.16666667E-02
                      -2.08333333E-01  1.25000000E-01  4.16666667E-02
                      -1.25000000E-01  1.25000000E-01  4.16666667E-02
                      -4.16666667E-02  1.25000000E-01  4.16666667E-02
                       2.08333333E-01  2.08333333E-01  4.16666667E-02
                       2.91666667E-01  2.08333333E-01  4.16666667E-02
                       3.75000000E-01  2.08333333E-01  4.16666667E-02
                       4.58333333E-01  2.08333333E-01  4.16666667E-02
                      -4.58333333E-01  2.08333333E-01  4.16666667E-02
                      -3.75000000E-01  2.08333333E-01  4.16666667E-02
                      -2.91666667E-01  2.08333333E-01  4.16666667E-02
                      -2.08333333E-01  2.08333333E-01  4.16666667E-02
                      -1.25000000E-01  2.08333333E-01  4.16666667E-02
                      -4.16666667E-02  2.08333333E-01  4.16666667E-02
                       2.91666667E-01  2.91666667E-01  4.16666667E-02
                       3.75000000E-01  2.91666667E-01  4.16666667E-02
                       4.58333333E-01  2.91666667E-01  4.16666667E-02
                      -4.58333333E-01  2.91666667E-01  4.16666667E-02
                      -3.75000000E-01  2.91666667E-01  4.16666667E-02
                      -2.91666667E-01  2.91666667E-01  4.16666667E-02
                      -2.08333333E-01  2.91666667E-01  4.16666667E-02
                      -1.25000000E-01  2.91666667E-01  4.16666667E-02
                      -4.16666667E-02  2.91666667E-01  4.16666667E-02
                       3.75000000E-01  3.75000000E-01  4.16666667E-02
                       4.58333333E-01  3.75000000E-01  4.16666667E-02
                      -4.58333333E-01  3.75000000E-01  4.16666667E-02
                      -3.75000000E-01  3.75000000E-01  4.16666667E-02
                      -2.91666667E-01  3.75000000E-01  4.16666667E-02
                      -2.08333333E-01  3.75000000E-01  4.16666667E-02
                      -1.25000000E-01  3.75000000E-01  4.16666667E-02
                      -4.16666667E-02  3.75000000E-01  4.16666667E-02
              kpt2     0.00000000E+00  0.00000000E+00  0.00000000E+00
                       6.25000000E-03  0.00000000E+00  6.25000000E-03
                       1.25000000E-02  0.00000000E+00  1.25000000E-02
                       1.87500000E-02  0.00000000E+00  1.87500000E-02
                       2.50000000E-02  0.00000000E+00  2.50000000E-02
                       3.12500000E-02  0.00000000E+00  3.12500000E-02
                       3.75000000E-02  0.00000000E+00  3.75000000E-02
                       4.37500000E-02  0.00000000E+00  4.37500000E-02
                       5.00000000E-02  0.00000000E+00  5.00000000E-02
                       5.62500000E-02  0.00000000E+00  5.62500000E-02
                       6.25000000E-02  0.00000000E+00  6.25000000E-02
                       6.87500000E-02  0.00000000E+00  6.87500000E-02
                       7.50000000E-02  0.00000000E+00  7.50000000E-02
                       8.12500000E-02  0.00000000E+00  8.12500000E-02
                       8.75000000E-02  0.00000000E+00  8.75000000E-02
                       9.37500000E-02  0.00000000E+00  9.37500000E-02
                       1.00000000E-01  0.00000000E+00  1.00000000E-01
                       1.06250000E-01  0.00000000E+00  1.06250000E-01
                       1.12500000E-01  0.00000000E+00  1.12500000E-01
                       1.18750000E-01  0.00000000E+00  1.18750000E-01
                       1.25000000E-01  0.00000000E+00  1.25000000E-01
                       1.31250000E-01  0.00000000E+00  1.31250000E-01
                       1.37500000E-01  0.00000000E+00  1.37500000E-01
                       1.43750000E-01  0.00000000E+00  1.43750000E-01
                       1.50000000E-01  0.00000000E+00  1.50000000E-01
                       1.56250000E-01  0.00000000E+00  1.56250000E-01
                       1.62500000E-01  0.00000000E+00  1.62500000E-01
                       1.68750000E-01  0.00000000E+00  1.68750000E-01
                       1.75000000E-01  0.00000000E+00  1.75000000E-01
                       1.81250000E-01  0.00000000E+00  1.81250000E-01
                       1.87500000E-01  0.00000000E+00  1.87500000E-01
                       1.93750000E-01  0.00000000E+00  1.93750000E-01
                       2.00000000E-01  0.00000000E+00  2.00000000E-01
                       2.06250000E-01  0.00000000E+00  2.06250000E-01
                       2.12500000E-01  0.00000000E+00  2.12500000E-01
                       2.18750000E-01  0.00000000E+00  2.18750000E-01
                       2.25000000E-01  0.00000000E+00  2.25000000E-01
                       2.31250000E-01  0.00000000E+00  2.31250000E-01
                       2.37500000E-01  0.00000000E+00  2.37500000E-01
                       2.43750000E-01  0.00000000E+00  2.43750000E-01
                       2.50000000E-01  0.00000000E+00  2.50000000E-01
                       2.56250000E-01  0.00000000E+00  2.56250000E-01
                       2.62500000E-01  0.00000000E+00  2.62500000E-01
                       2.68750000E-01  0.00000000E+00  2.68750000E-01
                       2.75000000E-01  0.00000000E+00  2.75000000E-01
                       2.81250000E-01  0.00000000E+00  2.81250000E-01
                       2.87500000E-01  0.00000000E+00  2.87500000E-01
                       2.93750000E-01  0.00000000E+00  2.93750000E-01
                       3.00000000E-01  0.00000000E+00  3.00000000E-01
                       3.06250000E-01  0.00000000E+00  3.06250000E-01
                       outvar_i_n : Printing only first  50 k-points.
           kptopt1          1
           kptopt2         -6
         kptrlatt       12    0    0      0   12    0      0    0   12
          kptrlen1     6.65896818E+01
          kptrlen2     3.00000000E+01
P           mkmem1         91
P           mkmem2        241
            natom           2
           natsph2       2
            nband1         15
            nband2         15
           nbdbuf1          0
           nbdbuf2          2
           ndtset           2
            ngfft          27      27      27
          ngfftdg          30      30      30
             nkpt1        182
             nkpt2        481
-           npkpt           2
            nstep          50
             nsym          48
           ntypat           2
              occ      2.000000  2.000000  2.000000  2.000000  2.000000  2.000000
                       2.000000  2.000000  2.000000  2.000000  2.000000  2.000000
                       0.000000  0.000000  0.000000
        optforces           1
        pawecutdg      3.00000000E+01 Hartree
           prtdos1          0
           prtdos2          3
          prtdosm1          0
          prtdosm2          1
        prtebands1          1
        prtebands2          2
        prtprocar1          0
        prtprocar2          1
            rprim      0.0000000000E+00  1.6953764711E+00  1.6953764711E+00
                       1.6953764711E+00  0.0000000000E+00  1.6953764711E+00
                       1.6953764711E+00  1.6953764711E+00  0.0000000000E+00
           shiftk      5.00000000E-01  5.00000000E-01  5.00000000E-01
          spgroup         225
           symrel      1  0  0   0  1  0   0  0  1      -1  0  0   0 -1  0   0  0 -1
                       0 -1  1   0 -1  0   1 -1  0       0  1 -1   0  1  0  -1  1  0
                      -1  0  0  -1  0  1  -1  1  0       1  0  0   1  0 -1   1 -1  0
                       0  1 -1   1  0 -1   0  0 -1       0 -1  1  -1  0  1   0  0  1
                      -1  0  0  -1  1  0  -1  0  1       1  0  0   1 -1  0   1  0 -1
                       0 -1  1   1 -1  0   0 -1  0       0  1 -1  -1  1  0   0  1  0
                       1  0  0   0  0  1   0  1  0      -1  0  0   0  0 -1   0 -1  0
                       0  1 -1   0  0 -1   1  0 -1       0 -1  1   0  0  1  -1  0  1
                      -1  0  1  -1  1  0  -1  0  0       1  0 -1   1 -1  0   1  0  0
                       0 -1  0   1 -1  0   0 -1  1       0  1  0  -1  1  0   0  1 -1
                       1  0 -1   0  0 -1   0  1 -1      -1  0  1   0  0  1   0 -1  1
                       0  1  0   0  0  1   1  0  0       0 -1  0   0  0 -1  -1  0  0
                       1  0 -1   0  1 -1   0  0 -1      -1  0  1   0 -1  1   0  0  1
                       0 -1  0   0 -1  1   1 -1  0       0  1  0   0  1 -1  -1  1  0
                      -1  0  1  -1  0  0  -1  1  0       1  0 -1   1  0  0   1 -1  0
                       0  1  0   1  0  0   0  0  1       0 -1  0  -1  0  0   0  0 -1
                       0  0 -1   0  1 -1   1  0 -1       0  0  1   0 -1  1  -1  0  1
                       1 -1  0   0 -1  1   0 -1  0      -1  1  0   0  1 -1   0  1  0
                       0  0  1   1  0  0   0  1  0       0  0 -1  -1  0  0   0 -1  0
                      -1  1  0  -1  0  0  -1  0  1       1 -1  0   1  0  0   1  0 -1
                       0  0  1   0  1  0   1  0  0       0  0 -1   0 -1  0  -1  0  0
                       1 -1  0   0 -1  0   0 -1  1      -1  1  0   0  1  0   0  1 -1
                       0  0 -1   1  0 -1   0  1 -1       0  0  1  -1  0  1   0 -1  1
                      -1  1  0  -1  0  1  -1  0  0       1 -1  0   1  0 -1   1  0  0
           toldfe1     1.00000000E-08 Hartree
           toldfe2     0.00000000E+00 Hartree
           tolwfr1     0.00000000E+00
           tolwfr2     1.00000000E-12
            typat      1  2
           useylm           1
              wtk1       0.00116    0.00347    0.00347    0.00347    0.00347    0.00347
                         0.00347    0.00347    0.00347    0.00347    0.00347    0.00347
                         0.00347    0.00694    0.00694    0.00694    0.00694    0.00694
                         0.00694    0.00694    0.00694    0.00694    0.00694    0.00347
                         0.00694    0.00694    0.00694    0.00694    0.00694    0.00694
                         0.00694    0.00694    0.00694    0.00347    0.00694    0.00694
                         0.00694    0.00694    0.00694    0.00694    0.00694    0.00694
                         0.00347    0.00694    0.00694    0.00694    0.00694    0.00694
                         0.00694    0.00694
              wtk2       1.00000    1.00000    1.00000    1.00000    1.00000    1.00000
                         1.00000    1.00000    1.00000    1.00000    1.00000    1.00000
                         1.00000    1.00000    1.00000    1.00000    1.00000    1.00000
                         1.00000    1.00000    1.00000    1.00000    1.00000    1.00000
                         1.00000    1.00000    1.00000    1.00000    1.00000    1.00000
                         1.00000    1.00000    1.00000    1.00000    1.00000    1.00000
                         1.00000    1.00000    1.00000    1.00000    1.00000    1.00000
                         1.00000    1.00000    1.00000    1.00000    1.00000    1.00000
                         1.00000    1.00000
                       outvars : Printing only first  50 k-points.
           xangst      0.0000000000E+00  0.0000000000E+00  0.0000000000E+00
                       2.0764038561E+00  2.0764038561E+00  2.0764038561E+00
            xcart      0.0000000000E+00  0.0000000000E+00  0.0000000000E+00
                       3.9238346293E+00  3.9238346293E+00  3.9238346293E+00
             xred      0.0000000000E+00  0.0000000000E+00  0.0000000000E+00
                       5.0000000000E-01  5.0000000000E-01  5.0000000000E-01
            znucl       28.00000    8.00000

================================================================================

 chkinp: Checking input parameters for consistency, jdtset=   1.

 chkinp: Checking input parameters for consistency, jdtset=   2.

================================================================================
== DATASET  1 ==================================================================
-   mpi_nproc: 2, omp_nthreads: 4 (-1 if OMP is not activated)


--- !DatasetInfo
iteration_state: {dtset: 1, }
dimensions: {natom: 2, nkpt: 182, mband: 15, nsppol: 1, nspinor: 1, nspden: 1, mpw: 736, }
cutoff_energies: {ecut:  25.0, pawecutdg:  30.0, }
electrons: {nelect:   2.40000000E+01, charge:   0.00000000E+00, occopt:   1.00000000E+00, tsmear:   1.00000000E-02, }
meta: {optdriver: 0, ionmov: 0, optcell: 0, iscf: 17, paral_kgb: 0, }
...

 Exchange-correlation functional for the present dataset will be:
  LDA: new Teter (4/93) with spin-polarized option - ixc=1
 Citation for XC functional:
  S. Goedecker, M. Teter, J. Huetter, PRB 54, 1703 (1996)

 Real(R)+Recip(G) space primitive vectors, cartesian coordinates (Bohr,Bohr^-1):
 R(1)=  0.0000000  3.9238346  3.9238346  G(1)= -0.1274264  0.1274264  0.1274264
 R(2)=  3.9238346  0.0000000  3.9238346  G(2)=  0.1274264 -0.1274264  0.1274264
 R(3)=  3.9238346  3.9238346  0.0000000  G(3)=  0.1274264  0.1274264 -0.1274264
 Unit cell volume ucvol=  1.2082647E+02 bohr^3
 Angles (23,13,12)=  6.00000000E+01  6.00000000E+01  6.00000000E+01 degrees

 Coarse grid specifications (used for wave-functions):

 getcut: wavevector=  0.0000  0.0000  0.0000  ngfft=  27  27  27
         ecut(hartree)=     25.000   => boxcut(ratio)=   2.08475

 Fine grid specifications (used for densities):

 getcut: wavevector=  0.0000  0.0000  0.0000  ngfft=  30  30  30
         ecut(hartree)=     30.000   => boxcut(ratio)=   2.19509

--- Pseudopotential description ------------------------------------------------
- pspini: atom type   1  psp file is /Users/uthpala/abinit/pseudo-dojo/paw_pw_standard/Ni.xml
- pspatm: opening atomic psp file    /Users/uthpala/abinit/pseudo-dojo/paw_pw_standard/Ni.xml
- pspatm : Reading pseudopotential header in XML form from /Users/uthpala/abinit/pseudo-dojo/paw_pw_standard/Ni.xml
 Pseudopotential format is: paw10
 basis_size (lnmax)=  6 (lmn_size= 18), orbitals=   0   0   1   1   2   2
 Spheres core radius: rc_sph= 1.81432190
 1 radial meshes are used:
  - mesh 1: r(i)=AA*[exp(BB*(i-1))-1], size=1500 , AA= 0.29784E-03 BB= 0.83395E-02
 Shapefunction is SIN type: shapef(r)=[sin(pi*r/rshp)/(pi*r/rshp)]**2
 Radius for shape functions =  1.60094920
 mmax= 1500
 Radial grid used for partial waves is grid 1
 Radial grid used for projectors is grid 1
 Radial grid used for (t)core density is grid 1
 Radial grid used for Vloc is grid 1
 Radial grid used for pseudo valence density is grid 1
 Mesh size for Vloc has been set to 1333 to avoid numerical noise.
 Compensation charge density is not taken into account in XC energy/potential
 pspatm: atomic psp has been read  and splines computed

- pspini: atom type   2  psp file is /Users/uthpala/abinit/pseudo-dojo/paw_pw_standard/O.xml
- pspatm: opening atomic psp file    /Users/uthpala/abinit/pseudo-dojo/paw_pw_standard/O.xml
- pspatm : Reading pseudopotential header in XML form from /Users/uthpala/abinit/pseudo-dojo/paw_pw_standard/O.xml
 Pseudopotential format is: paw10
 basis_size (lnmax)=  4 (lmn_size=  8), orbitals=   0   0   1   1
 Spheres core radius: rc_sph= 1.41465230
 1 radial meshes are used:
  - mesh 1: r(i)=AA*[exp(BB*(i-1))-1], size=2001 , AA= 0.72565E-03 BB= 0.58052E-02
 Shapefunction is SIN type: shapef(r)=[sin(pi*r/rshp)/(pi*r/rshp)]**2
 Radius for shape functions =  1.20231231
 mmax= 2001
 Radial grid used for partial waves is grid 1
 Radial grid used for projectors is grid 1
 Radial grid used for (t)core density is grid 1
 Radial grid used for Vloc is grid 1
 Radial grid used for pseudo valence density is grid 1
 Mesh size for Vloc has been set to 1762 to avoid numerical noise.
 Compensation charge density is not taken into account in XC energy/potential
 pspatm: atomic psp has been read  and splines computed

   6.31776416E+02                                ecore*ucvol(ha*bohr**3)
--------------------------------------------------------------------------------

_setup2: Arith. and geom. avg. npw (full set) are     721.376     721.368

================================================================================

--- !BeginCycle
iteration_state: {dtset: 1, }
solver: {iscf: 17, nstep: 50, nline: 4, wfoptalg: 10, }
tolerances: {toldfe: 1.00E-08, }
...

     iter   Etot(hartree)      deltaE(h)  residm     nres2    diffor    maxfor
 ETOT  1  -185.68679776470    -1.857E+02 8.751E+00 7.724E+00 0.000E+00 0.000E+00
 ETOT  2  -187.12224320671    -1.435E+00 1.047E-01 2.174E+01 0.000E+00 0.000E+00
 ETOT  3  -187.08917135514     3.307E-02 7.488E-02 2.783E+00 0.000E+00 0.000E+00
 ETOT  4  -187.08674529861     2.426E-03 9.891E-03 1.154E+00 0.000E+00 0.000E+00
 ETOT  5  -187.08528534285     1.460E-03 5.576E-03 3.529E-01 0.000E+00 0.000E+00
 ETOT  6  -187.08462393553     6.614E-04 2.026E-03 9.461E-04 0.000E+00 0.000E+00
 ETOT  7  -187.08463508015    -1.114E-05 8.276E-04 6.839E-05 0.000E+00 0.000E+00
 ETOT  8  -187.08463507159     8.559E-09 2.260E-03 4.371E-05 0.000E+00 0.000E+00
 ETOT  9  -187.08463499528     7.631E-08 8.557E-04 4.592E-07 0.000E+00 0.000E+00
 ETOT 10  -187.08463499508     2.007E-10 8.887E-04 9.356E-09 0.000E+00 0.000E+00
 ETOT 11  -187.08463499507     1.708E-11 3.689E-04 1.097E-09 0.000E+00 0.000E+00

 At SCF step   11, etot is converged : 
  for the second time, diff in etot=  1.708E-11 < toldfe=  1.000E-08

 Cartesian components of stress tensor (hartree/bohr^3)
  sigma(1 1)=  4.80749187E-04  sigma(3 2)=  0.00000000E+00
  sigma(2 2)=  4.80749187E-04  sigma(3 1)=  0.00000000E+00
  sigma(3 3)=  4.80749187E-04  sigma(2 1)=  0.00000000E+00


--- !ResultsGS
iteration_state: {dtset: 1, }
comment   : Summary of ground state results
lattice_vectors:
- [  0.0000000,   3.9238346,   3.9238346, ]
- [  3.9238346,   0.0000000,   3.9238346, ]
- [  3.9238346,   3.9238346,   0.0000000, ]
lattice_lengths: [   5.54914,    5.54914,    5.54914, ]
lattice_angles: [ 60.000,  60.000,  60.000, ] # degrees, (23, 13, 12)
lattice_volume:   1.2082647E+02
convergence: {deltae:  1.708E-11, res2:  1.097E-09, residm:  3.689E-04, diffor:  0.000E+00, }
etotal    :  -1.87084635E+02
entropy   :   0.00000000E+00
fermie    :   3.87903579E-01
cartesian_stress_tensor: # hartree/bohr^3
- [  4.80749187E-04,   0.00000000E+00,   0.00000000E+00, ]
- [  0.00000000E+00,   4.80749187E-04,   0.00000000E+00, ]
- [  0.00000000E+00,   0.00000000E+00,   4.80749187E-04, ]
pressure_GPa:  -1.4144E+01
xred      :
- [  0.0000E+00,   0.0000E+00,   0.0000E+00, Ni]
- [  5.0000E-01,   5.0000E-01,   5.0000E-01,  O]
cartesian_forces: # hartree/bohr
- [ -0.00000000E+00,  -0.00000000E+00,  -0.00000000E+00, ]
- [ -0.00000000E+00,  -0.00000000E+00,  -0.00000000E+00, ]
force_length_stats: {min:   0.00000000E+00, max:   0.00000000E+00, mean:   0.00000000E+00, }
...

 Integrated electronic density in atomic spheres:
 ------------------------------------------------
 Atom  Sphere_radius  Integrated_density
    1        1.81432         15.75725304
    2        1.41465          4.47904796

 PAW TEST:
 ==== Compensation charge inside spheres ============
 The following values must be close to each other ...
 Compensation charge over spherical meshes =      7.836741750453394
 Compensation charge over fine fft grid    =      7.836674956572057

 ==== Results concerning PAW augmentation regions ====

 Total pseudopotential strength Dij (hartree):
 Atom #  1
  -1.84182   0.26499   0.00000   0.00000   0.00000   0.00000   0.00000   0.00000   0.00000   0.00000   0.00000   0.00000 ...
   0.26499   0.06975   0.00000   0.00000   0.00000   0.00000   0.00000   0.00000   0.00000   0.00000   0.00000   0.00000 ...
   0.00000   0.00000  -1.78340   0.00000   0.00000   0.50830   0.00000   0.00000   0.00000   0.00000   0.00000   0.00000 ...
   0.00000   0.00000   0.00000  -1.78340   0.00000   0.00000   0.50830   0.00000   0.00000   0.00000   0.00000   0.00000 ...
   0.00000   0.00000   0.00000   0.00000  -1.78340   0.00000   0.00000   0.50830   0.00000   0.00000   0.00000   0.00000 ...
   0.00000   0.00000   0.50830   0.00000   0.00000   0.61375   0.00000   0.00000   0.00000   0.00000   0.00000   0.00000 ...
   0.00000   0.00000   0.00000   0.50830   0.00000   0.00000   0.61375   0.00000   0.00000   0.00000   0.00000   0.00000 ...
   0.00000   0.00000   0.00000   0.00000   0.50830   0.00000   0.00000   0.61375   0.00000   0.00000   0.00000   0.00000 ...
   0.00000   0.00000   0.00000   0.00000   0.00000   0.00000   0.00000   0.00000  -0.46324   0.00000   0.00000   0.00000 ...
   0.00000   0.00000   0.00000   0.00000   0.00000   0.00000   0.00000   0.00000   0.00000  -0.46324   0.00000   0.00000 ...
   0.00000   0.00000   0.00000   0.00000   0.00000   0.00000   0.00000   0.00000   0.00000   0.00000  -0.47060   0.00000 ...
   0.00000   0.00000   0.00000   0.00000   0.00000   0.00000   0.00000   0.00000   0.00000   0.00000   0.00000  -0.46324 ...
   ...  only 12  components have been written...
 Atom #  2
   0.59230  -1.73572   0.00000   0.00000   0.00000   0.00000   0.00000   0.00000
  -1.73572   5.14983   0.00000   0.00000   0.00000   0.00000   0.00000   0.00000
   0.00000   0.00000  -0.29233   0.00000   0.00000   0.82809   0.00000   0.00000
   0.00000   0.00000   0.00000  -0.29233   0.00000   0.00000   0.82809   0.00000
   0.00000   0.00000   0.00000   0.00000  -0.29233   0.00000   0.00000   0.82809
   0.00000   0.00000   0.82809   0.00000   0.00000   0.35092   0.00000   0.00000
   0.00000   0.00000   0.00000   0.82809   0.00000   0.00000   0.35092   0.00000
   0.00000   0.00000   0.00000   0.00000   0.82809   0.00000   0.00000   0.35092


 Augmentation waves occupancies Rhoij:
 Atom #  1
   2.00230   0.01227   0.00000   0.00000   0.00000   0.00000   0.00000   0.00000   0.00000   0.00000   0.00000   0.00000 ...
   0.01227   0.59461   0.00000   0.00000   0.00000   0.00000   0.00000   0.00000   0.00000   0.00000   0.00000   0.00000 ...
   0.00000   0.00000   2.00837   0.00000   0.00000   0.01874   0.00000   0.00000   0.00000   0.00000   0.00000   0.00000 ...
   0.00000   0.00000   0.00000   2.00837   0.00000   0.00000   0.01874   0.00000   0.00000   0.00000   0.00000   0.00000 ...
   0.00000   0.00000   0.00000   0.00000   2.00837   0.00000   0.00000   0.01874   0.00000   0.00000   0.00000   0.00000 ...
   0.00000   0.00000   0.01874   0.00000   0.00000   0.01424   0.00000   0.00000   0.00000   0.00000   0.00000   0.00000 ...
   0.00000   0.00000   0.00000   0.01874   0.00000   0.00000   0.01424   0.00000   0.00000   0.00000   0.00000   0.00000 ...
   0.00000   0.00000   0.00000   0.00000   0.01874   0.00000   0.00000   0.01424   0.00000   0.00000   0.00000   0.00000 ...
   0.00000   0.00000   0.00000   0.00000   0.00000   0.00000   0.00000   0.00000   1.93922   0.00000   0.00000   0.00000 ...
   0.00000   0.00000   0.00000   0.00000   0.00000   0.00000   0.00000   0.00000   0.00000   1.93922   0.00000   0.00000 ...
   0.00000   0.00000   0.00000   0.00000   0.00000   0.00000   0.00000   0.00000   0.00000   0.00000   1.27415   0.00000 ...
   0.00000   0.00000   0.00000   0.00000   0.00000   0.00000   0.00000   0.00000   0.00000   0.00000   0.00000   1.93922 ...
   ...  only 12  components have been written...
 Atom #  2
   1.96752   0.02253   0.00000   0.00000   0.00000   0.00000   0.00000   0.00000
   0.02253   0.00144   0.00000   0.00000   0.00000   0.00000   0.00000   0.00000
   0.00000   0.00000   1.69311   0.00000   0.00000   0.02984   0.00000   0.00000
   0.00000   0.00000   0.00000   1.69311   0.00000   0.00000   0.02984   0.00000
   0.00000   0.00000   0.00000   0.00000   1.69311   0.00000   0.00000   0.02984
   0.00000   0.00000   0.02984   0.00000   0.00000   0.00076   0.00000   0.00000
   0.00000   0.00000   0.00000   0.02984   0.00000   0.00000   0.00076   0.00000
   0.00000   0.00000   0.00000   0.00000   0.02984   0.00000   0.00000   0.00076


================================================================================

 ----iterations are completed or convergence reached----

 Mean square residual over all n,k,spin=   20.815E-08; max=  36.891E-05
 reduced coordinates (array xred) for    2 atoms
       0.000000000000      0.000000000000      0.000000000000
       0.500000000000      0.500000000000      0.500000000000
 rms dE/dt=  0.0000E+00; max dE/dt=  0.0000E+00; dE/dt below (all hartree)
    1       0.000000000000      0.000000000000      0.000000000000
    2       0.000000000000      0.000000000000      0.000000000000

 cartesian coordinates (angstrom) at end:
    1      0.00000000000000     0.00000000000000     0.00000000000000
    2      2.07640385610571     2.07640385610571     2.07640385610571

 cartesian forces (hartree/bohr) at end:
    1     -0.00000000000000    -0.00000000000000    -0.00000000000000
    2     -0.00000000000000    -0.00000000000000    -0.00000000000000
 frms,max,avg= 0.0000000E+00 0.0000000E+00   0.000E+00  0.000E+00  0.000E+00 h/b

 cartesian forces (eV/Angstrom) at end:
    1     -0.00000000000000    -0.00000000000000    -0.00000000000000
    2     -0.00000000000000    -0.00000000000000    -0.00000000000000
 frms,max,avg= 0.0000000E+00 0.0000000E+00   0.000E+00  0.000E+00  0.000E+00 e/A
 length scales=  2.314432632621  2.314432632621  2.314432632621 bohr
              =  1.224745000000  1.224745000000  1.224745000000 angstroms
 prteigrs : about to open file abinito_DS1_EIG
 Fermi (or HOMO) energy (hartree) =   0.38790   Average Vxc (hartree)=  -0.48523
 Eigenvalues (hartree) for nkpt= 182  k points:
 kpt#   1, nband= 15, wtk=  0.00116, kpt=  0.0417  0.0417  0.0417 (reduced coord)
  -3.41889   -1.97931   -1.97930   -1.97930   -0.40311    0.22131    0.22364    0.22364
   0.27185    0.27185    0.27328    0.28233    0.28233    0.41000    0.97356
 prteigrs : prtvol=0 or 1, do not print more k-points.


--- !EnergyTerms
iteration_state     : {dtset: 1, }
comment             : Components of total free energy in Hartree
kinetic             :  3.64626366755668E+01
hartree             :  4.71218679110360E+01
xc                  : -9.41954437319872E+00
Ewald energy        : -1.20158775023405E+02
psp_core            :  5.22879153256492E+00
local_psp           : -1.41529352165543E+02
spherical_terms     : -4.79027594779896E+00
total_energy        : -1.87084651390778E+02
total_energy_eV     : -5.09083226330875E+03
...


--- !EnergyTermsDC
iteration_state     : {dtset: 1, }
comment             : '"Double-counting" decomposition of free energy'
band_energy         : -1.62212140215126E+01
Ewald energy        : -1.20158775023405E+02
psp_core            :  5.22879153256492E+00
xc_dc               : -4.41902839043804E+01
spherical_terms     : -1.17431535783314E+01
total_energy_dc     : -1.87084634995065E+02
total_energy_dc_eV  : -5.09083181715870E+03
...


 Cartesian components of stress tensor (hartree/bohr^3)
  sigma(1 1)=  4.80749187E-04  sigma(3 2)=  0.00000000E+00
  sigma(2 2)=  4.80749187E-04  sigma(3 1)=  0.00000000E+00
  sigma(3 3)=  4.80749187E-04  sigma(2 1)=  0.00000000E+00

-Cartesian components of stress tensor (GPa)         [Pressure= -1.4144E+01 GPa]
- sigma(1 1)=  1.41441270E+01  sigma(3 2)=  0.00000000E+00
- sigma(2 2)=  1.41441270E+01  sigma(3 1)=  0.00000000E+00
- sigma(3 3)=  1.41441270E+01  sigma(2 1)=  0.00000000E+00

================================================================================
== DATASET  2 ==================================================================
-   mpi_nproc: 2, omp_nthreads: 4 (-1 if OMP is not activated)


--- !DatasetInfo
iteration_state: {dtset: 2, }
dimensions: {natom: 2, nkpt: 481, mband: 15, nsppol: 1, nspinor: 1, nspden: 1, mpw: 745, }
cutoff_energies: {ecut:  25.0, pawecutdg:  30.0, }
electrons: {nelect:   2.40000000E+01, charge:   0.00000000E+00, occopt:   1.00000000E+00, tsmear:   1.00000000E-02, }
meta: {optdriver: 0, ionmov: 0, optcell: 0, iscf: -2, paral_kgb: 0, }
...

 mkfilename : getden/=0, take file _DEN from output of DATASET   1.

 Exchange-correlation functional for the present dataset will be:
  LDA: new Teter (4/93) with spin-polarized option - ixc=1
 Citation for XC functional:
  S. Goedecker, M. Teter, J. Huetter, PRB 54, 1703 (1996)

 Real(R)+Recip(G) space primitive vectors, cartesian coordinates (Bohr,Bohr^-1):
 R(1)=  0.0000000  3.9238346  3.9238346  G(1)= -0.1274264  0.1274264  0.1274264
 R(2)=  3.9238346  0.0000000  3.9238346  G(2)=  0.1274264 -0.1274264  0.1274264
 R(3)=  3.9238346  3.9238346  0.0000000  G(3)=  0.1274264  0.1274264 -0.1274264
 Unit cell volume ucvol=  1.2082647E+02 bohr^3
 Angles (23,13,12)=  6.00000000E+01  6.00000000E+01  6.00000000E+01 degrees

 Coarse grid specifications (used for wave-functions):

 getcut: wavevector=  0.0000  0.0000  0.0000  ngfft=  27  27  27
         ecut(hartree)=     25.000   => boxcut(ratio)=   2.08475

 Fine grid specifications (used for densities):

 getcut: wavevector=  0.0000  0.0000  0.0000  ngfft=  30  30  30
         ecut(hartree)=     30.000   => boxcut(ratio)=   2.19509
--------------------------------------------------------------------------------


================================================================================
 prteigrs : about to open file abinito_DS2_EIG
 Non-SCF case, kpt    1 (  0.00000  0.00000  0.00000), residuals and eigenvalues=
  5.80E-13  1.46E-13  3.62E-13  9.31E-13  1.81E-13  4.62E-13  3.24E-13  8.31E-13
  1.36E-13  1.35E-13  1.02E-13  2.80E-13  8.63E-14  1.06E-13  2.43E-06
 -3.4189E+00 -1.9793E+00 -1.9793E+00 -1.9793E+00 -4.0389E-01  2.2812E-01
  2.2812E-01  2.2812E-01  2.7101E-01  2.7101E-01  2.7101E-01  2.7789E-01
  2.7789E-01  4.0523E-01  9.9337E-01
  prteigrs : nnsclo,ikpt=   50    1 max resid (incl. the buffer)=  2.42541E-06
 Non-SCF case, kpt    2 (  0.00625  0.00000  0.00625), residuals and eigenvalues=
  6.10E-13  4.16E-13  4.90E-13  3.16E-13  8.95E-14  1.69E-13  1.24E-13  2.66E-13
  6.07E-13  1.90E-13  1.72E-13  1.04E-13  2.03E-13  1.80E-13  6.75E-06
 -3.4189E+00 -1.9793E+00 -1.9793E+00 -1.9793E+00 -4.0387E-01  2.2776E-01
  2.2805E-01  2.2805E-01  2.7099E-01  2.7109E-01  2.7109E-01  2.7789E-01
  2.7816E-01  4.0538E-01  9.9259E-01
  prteigrs : nnsclo,ikpt=   50    2 max resid (incl. the buffer)=  6.75344E-06
 Non-SCF case, kpt    3 (  0.01250  0.00000  0.01250), residuals and eigenvalues=
  6.12E-13  4.53E-13  5.20E-13  3.54E-13  8.69E-14  1.39E-13  1.08E-13  2.72E-13
  5.75E-13  2.03E-13  1.63E-13  1.12E-13  1.99E-13  1.49E-13  3.00E-06
 -3.4189E+00 -1.9793E+00 -1.9793E+00 -1.9793E+00 -4.0380E-01  2.2669E-01
  2.2782E-01  2.2782E-01  2.7095E-01  2.7133E-01  2.7133E-01  2.7791E-01
  2.7894E-01  4.0582E-01  9.9043E-01
  prteigrs : nnsclo,ikpt=   50    3 max resid (incl. the buffer)=  2.99931E-06
 Non-SCF case, kpt    4 (  0.01875  0.00000  0.01875), residuals and eigenvalues=
  6.21E-13  5.02E-13  5.52E-13  4.04E-13  1.01E-13  1.23E-13  1.08E-13  3.08E-13
  6.10E-13  1.91E-13  1.67E-13  1.18E-13  1.90E-13  1.47E-13  1.32E-06
 -3.4189E+00 -1.9793E+00 -1.9793E+00 -1.9793E+00 -4.0368E-01  2.2500E-01
  2.2745E-01  2.2745E-01  2.7087E-01  2.7173E-01  2.7173E-01  2.7794E-01
  2.8017E-01  4.0655E-01  9.8721E-01
  prteigrs : nnsclo,ikpt=   50    4 max resid (incl. the buffer)=  1.32249E-06
 Non-SCF case, kpt    5 (  0.02500  0.00000  0.02500), residuals and eigenvalues=
  6.26E-13  5.75E-13  6.10E-13  4.41E-13  1.07E-13  1.22E-13  1.24E-13  3.70E-13
  7.30E-13  1.95E-13  1.88E-13  1.31E-13  1.66E-13  1.96E-13  7.66E-07
 -3.4189E+00 -1.9793E+00 -1.9793E+00 -1.9793E+00 -4.0351E-01  2.2277E-01
  2.2695E-01  2.2695E-01  2.7076E-01  2.7227E-01  2.7227E-01  2.7798E-01
  2.8175E-01  4.0757E-01  9.8328E-01
  prteigrs : nnsclo,ikpt=   50    5 max resid (incl. the buffer)=  7.66172E-07
 Non-SCF case, kpt    6 (  0.03125  0.00000  0.03125), residuals and eigenvalues=
  6.24E-13  6.37E-13  6.71E-13  4.80E-13  1.02E-13  1.16E-13  8.66E-13  6.23E-13
  8.80E-13  2.24E-13  2.18E-13  1.51E-13  1.60E-13  3.02E-13  6.26E-07
 -3.4189E+00 -1.9793E+00 -1.9793E+00 -1.9793E+00 -4.0330E-01  2.2010E-01
  2.2632E-01  2.2632E-01  2.7063E-01  2.7294E-01  2.7294E-01  2.7803E-01
  2.8359E-01  4.0888E-01  9.7891E-01
  prteigrs : nnsclo,ikpt=   50    6 max resid (incl. the buffer)=  6.26034E-07
 Non-SCF case, kpt    7 (  0.03750  0.00000  0.03750), residuals and eigenvalues=
  4.98E-13  6.41E-13  6.32E-13  4.10E-13  5.30E-13  1.58E-13  1.30E-13  5.17E-13
  9.74E-14  2.18E-13  2.27E-13  2.32E-13  1.10E-13  4.59E-13  3.70E-07
 -3.4189E+00 -1.9793E+00 -1.9793E+00 -1.9793E+00 -4.0304E-01  2.1709E-01
  2.2559E-01  2.2559E-01  2.7046E-01  2.7374E-01  2.7374E-01  2.7809E-01
  2.8560E-01  4.1048E-01  9.7428E-01
  prteigrs : nnsclo,ikpt=   50    7 max resid (incl. the buffer)=  3.70327E-07
 Non-SCF case, kpt    8 (  0.04375  0.00000  0.04375), residuals and eigenvalues=
  4.42E-13  6.00E-13  5.65E-13  3.55E-13  6.43E-13  1.93E-13  1.61E-13  5.30E-13
  1.21E-13  2.78E-13  2.48E-13  2.08E-13  8.42E-13  7.14E-13  3.27E-07
 -3.4189E+00 -1.9793E+00 -1.9793E+00 -1.9793E+00 -4.0274E-01  2.1380E-01
  2.2475E-01  2.2475E-01  2.7027E-01  2.7464E-01  2.7464E-01  2.7816E-01
  2.8771E-01  4.1235E-01  9.6950E-01
  prteigrs : nnsclo,ikpt=   50    8 max resid (incl. the buffer)=  3.27042E-07
 Non-SCF case, kpt    9 (  0.05000  0.00000  0.05000), residuals and eigenvalues=
  3.55E-13  4.05E-13  4.18E-13  3.99E-13  7.49E-13  1.86E-13  2.13E-13  4.64E-13
  1.80E-13  3.11E-13  3.55E-13  1.76E-13  5.40E-13  4.47E-14  2.46E-07
 -3.4189E+00 -1.9793E+00 -1.9793E+00 -1.9793E+00 -4.0239E-01  2.1030E-01
  2.2383E-01  2.2383E-01  2.7004E-01  2.7564E-01  2.7564E-01  2.7825E-01
  2.8987E-01  4.1449E-01  9.6464E-01
  prteigrs : nnsclo,ikpt=   50    9 max resid (incl. the buffer)=  2.46455E-07
 Non-SCF case, kpt   10 (  0.05625  0.00000  0.05625), residuals and eigenvalues=
  9.07E-13  6.28E-13  6.42E-13  6.19E-13  8.49E-14  3.37E-13  3.54E-13  3.65E-13
  4.36E-13  2.82E-13  3.61E-13  1.49E-13  9.68E-13  4.44E-14  1.25E-07
 -3.4189E+00 -1.9793E+00 -1.9793E+00 -1.9793E+00 -4.0200E-01  2.0664E-01
  2.2284E-01  2.2284E-01  2.6979E-01  2.7671E-01  2.7671E-01  2.7834E-01
  2.9203E-01  4.1689E-01  9.5976E-01
  prteigrs : nnsclo,ikpt=   50   10 max resid (incl. the buffer)=  1.24665E-07
 Non-SCF case, kpt   11 (  0.06250  0.00000  0.06250), residuals and eigenvalues=
  7.27E-13  2.40E-13  5.98E-13  2.70E-13  1.02E-13  3.00E-13  3.80E-13  2.62E-13
  6.08E-13  3.05E-13  3.26E-13  7.76E-13  6.84E-14  5.58E-14  9.34E-08
 -3.4189E+00 -1.9793E+00 -1.9793E+00 -1.9793E+00 -4.0156E-01  2.0286E-01
  2.2179E-01  2.2179E-01  2.6950E-01  2.7786E-01  2.7786E-01  2.7845E-01
  2.9415E-01  4.1954E-01  9.5489E-01
  prteigrs : nnsclo,ikpt=   50   11 max resid (incl. the buffer)=  9.33595E-08
 Non-SCF case, kpt   12 (  0.06875  0.00000  0.06875), residuals and eigenvalues=
  5.41E-13  5.00E-13  7.06E-13  3.72E-13  2.39E-13  7.52E-13  1.80E-13  8.80E-14
  4.61E-13  5.67E-13  2.82E-13  6.47E-13  2.43E-13  1.40E-13  2.16E-06
 -3.4189E+00 -1.9793E+00 -1.9793E+00 -1.9793E+00 -4.0108E-01  1.9899E-01
  2.2069E-01  2.2069E-01  2.6919E-01  2.7857E-01  2.7906E-01  2.7906E-01
  2.9623E-01  4.2244E-01  9.5006E-01
  prteigrs : nnsclo,ikpt=   50   12 max resid (incl. the buffer)=  2.15766E-06
 Non-SCF case, kpt   13 (  0.07500  0.00000  0.07500), residuals and eigenvalues=
  4.03E-13  8.66E-13  8.32E-13  2.90E-13  1.50E-13  8.30E-13  5.20E-13  5.10E-13
  3.34E-13  2.89E-13  4.30E-13  6.81E-13  1.32E-13  2.21E-13  2.53E-06
 -3.4189E+00 -1.9793E+00 -1.9793E+00 -1.9793E+00 -4.0056E-01  1.9505E-01
  2.1955E-01  2.1955E-01  2.6885E-01  2.7869E-01  2.8030E-01  2.8030E-01
  2.9824E-01  4.2556E-01  9.4527E-01
  prteigrs : nnsclo,ikpt=   50   13 max resid (incl. the buffer)=  2.53072E-06
 Non-SCF case, kpt   14 (  0.08125  0.00000  0.08125), residuals and eigenvalues=
  6.48E-13  6.27E-13  3.48E-13  1.47E-13  3.01E-13  1.44E-13  3.99E-13  1.48E-14
  5.18E-13  2.03E-13  2.53E-13  5.00E-13  7.94E-14  3.09E-13  5.22E-07
 -3.4189E+00 -1.9794E+00 -1.9793E+00 -1.9793E+00 -3.9999E-01  1.9107E-01
  2.1838E-01  2.1838E-01  2.6849E-01  2.7883E-01  2.8158E-01  2.8158E-01
  3.0017E-01  4.2889E-01  9.4054E-01
  prteigrs : nnsclo,ikpt=   50   14 max resid (incl. the buffer)=  5.22001E-07
 Non-SCF case, kpt   15 (  0.08750  0.00000  0.08750), residuals and eigenvalues=
  5.44E-13  3.28E-13  1.70E-13  9.92E-13  3.86E-13  5.10E-13  3.82E-13  9.09E-13
  7.57E-13  5.82E-13  1.09E-13  5.13E-13  2.93E-13  1.59E-13  3.94E-07
 -3.4189E+00 -1.9794E+00 -1.9793E+00 -1.9793E+00 -3.9939E-01  1.8707E-01
  2.1719E-01  2.1719E-01  2.6810E-01  2.7898E-01  2.8289E-01  2.8289E-01
  3.0202E-01  4.3243E-01  9.3589E-01
  prteigrs : nnsclo,ikpt=   50   15 max resid (incl. the buffer)=  3.94149E-07
 Non-SCF case, kpt   16 (  0.09375  0.00000  0.09375), residuals and eigenvalues=
  5.94E-13  6.85E-13  2.63E-13  9.22E-14  3.90E-13  4.55E-13  7.96E-13  5.01E-13
  6.51E-13  6.81E-13  2.03E-13  1.71E-13  3.73E-13  2.49E-13  4.13E-07
 -3.4189E+00 -1.9794E+00 -1.9793E+00 -1.9793E+00 -3.9874E-01  1.8306E-01
  2.1597E-01  2.1597E-01  2.6768E-01  2.7914E-01  2.8422E-01  2.8422E-01
  3.0378E-01  4.3614E-01  9.3130E-01
  prteigrs : nnsclo,ikpt=   50   16 max resid (incl. the buffer)=  4.13209E-07
 Non-SCF case, kpt   17 (  0.10000  0.00000  0.10000), residuals and eigenvalues=
  5.55E-13  1.53E-13  3.40E-13  2.61E-13  3.52E-13  2.95E-13  7.47E-13  4.11E-13
  5.71E-13  7.27E-13  1.76E-13  2.50E-13  4.70E-13  8.99E-13  3.91E-07
 -3.4189E+00 -1.9794E+00 -1.9793E+00 -1.9793E+00 -3.9805E-01  1.7905E-01
  2.1475E-01  2.1475E-01  2.6724E-01  2.7931E-01  2.8557E-01  2.8557E-01
  3.0545E-01  4.4003E-01  9.2680E-01
  prteigrs : nnsclo,ikpt=   50   17 max resid (incl. the buffer)=  3.91122E-07
 Non-SCF case, kpt   18 (  0.10625  0.00000  0.10625), residuals and eigenvalues=
  5.64E-13  4.67E-13  3.57E-13  4.41E-13  1.11E-13  1.67E-13  8.56E-14  1.62E-13
  7.63E-14  2.61E-13  4.66E-13  3.47E-13  1.55E-13  2.82E-13  1.38E-07
 -3.4189E+00 -1.9794E+00 -1.9793E+00 -1.9793E+00 -3.9733E-01  1.7506E-01
  2.1353E-01  2.1353E-01  2.6677E-01  2.7948E-01  2.8692E-01  2.8692E-01
  3.0705E-01  4.4407E-01  9.2238E-01
  prteigrs : nnsclo,ikpt=   50   18 max resid (incl. the buffer)=  1.38285E-07
 Non-SCF case, kpt   19 (  0.11250  0.00000  0.11250), residuals and eigenvalues=
  5.49E-13  4.21E-13  3.35E-13  4.18E-13  1.13E-13  1.83E-13  8.85E-14  1.56E-13
  6.17E-14  2.41E-13  6.93E-13  4.24E-13  1.55E-13  3.54E-13  9.48E-08
 -3.4189E+00 -1.9794E+00 -1.9793E+00 -1.9793E+00 -3.9657E-01  1.7109E-01
  2.1230E-01  2.1230E-01  2.6628E-01  2.7967E-01  2.8827E-01  2.8827E-01
  3.0856E-01  4.4824E-01  9.1804E-01
  prteigrs : nnsclo,ikpt=   50   19 max resid (incl. the buffer)=  9.48467E-08
 Non-SCF case, kpt   20 (  0.11875  0.00000  0.11875), residuals and eigenvalues=
  5.41E-13  4.17E-13  3.30E-13  4.17E-13  1.14E-13  1.92E-13  8.91E-14  1.55E-13
  9.50E-13  2.23E-13  9.21E-14  1.86E-13  1.47E-13  4.86E-13  5.66E-08
 -3.4189E+00 -1.9794E+00 -1.9793E+00 -1.9793E+00 -3.9578E-01  1.6715E-01
  2.1108E-01  2.1108E-01  2.6577E-01  2.7986E-01  2.8961E-01  2.8961E-01
  3.0999E-01  4.5254E-01  9.1379E-01
  prteigrs : nnsclo,ikpt=   50   20 max resid (incl. the buffer)=  5.66262E-08
 Non-SCF case, kpt   21 (  0.12500  0.00000  0.12500), residuals and eigenvalues=
  5.46E-13  5.10E-13  3.98E-13  4.73E-13  1.14E-13  1.94E-13  9.05E-14  1.63E-13
  7.68E-13  2.12E-13  1.26E-13  1.88E-13  1.28E-13  7.07E-13  2.47E-08
 -3.4189E+00 -1.9794E+00 -1.9793E+00 -1.9793E+00 -3.9495E-01  1.6326E-01
  2.0986E-01  2.0986E-01  2.6524E-01  2.8007E-01  2.9095E-01  2.9095E-01
  3.1134E-01  4.5694E-01  9.0963E-01
  prteigrs : nnsclo,ikpt=   50   21 max resid (incl. the buffer)=  2.46687E-08
 Non-SCF case, kpt   22 (  0.13125  0.00000  0.13125), residuals and eigenvalues=
  9.05E-13  1.61E-13  4.99E-13  8.96E-14  2.28E-13  8.58E-14  1.28E-13  9.48E-14
  1.86E-13  6.54E-13  1.29E-13  1.57E-13  6.35E-14  4.01E-13  5.89E-07
 -3.4189E+00 -1.9794E+00 -1.9793E+00 -1.9793E+00 -3.9409E-01  1.5941E-01
  2.0865E-01  2.0865E-01  2.6469E-01  2.8028E-01  2.9227E-01  2.9227E-01
  3.1263E-01  4.6143E-01  9.0556E-01
  prteigrs : nnsclo,ikpt=   50   22 max resid (incl. the buffer)=  5.88707E-07
 Non-SCF case, kpt   23 (  0.13750  0.00000  0.13750), residuals and eigenvalues=
  8.92E-13  2.04E-13  7.74E-13  9.67E-14  2.46E-13  7.61E-14  1.20E-13  9.36E-14
  2.03E-13  8.06E-13  1.42E-13  1.78E-13  1.17E-13  2.15E-13  2.27E-08
 -3.4189E+00 -1.9795E+00 -1.9793E+00 -1.9793E+00 -3.9320E-01  1.5562E-01
  2.0746E-01  2.0746E-01  2.6411E-01  2.8050E-01  2.9358E-01  2.9358E-01
  3.1385E-01  4.6600E-01  9.0158E-01
  prteigrs : nnsclo,ikpt=   50   23 max resid (incl. the buffer)=  2.26712E-08
 Non-SCF case, kpt   24 (  0.14375  0.00000  0.14375), residuals and eigenvalues=
  6.04E-13  1.36E-13  1.60E-13  4.32E-13  3.80E-13  9.20E-13  3.95E-13  7.00E-13
  5.69E-13  1.17E-13  3.57E-13  1.17E-13  3.75E-13  4.44E-13  2.46E-08
 -3.4189E+00 -1.9795E+00 -1.9793E+00 -1.9793E+00 -3.9228E-01  1.5189E-01
  2.0628E-01  2.0628E-01  2.6352E-01  2.8072E-01  2.9486E-01  2.9486E-01
  3.1501E-01  4.7063E-01  8.9768E-01
  prteigrs : nnsclo,ikpt=   50   24 max resid (incl. the buffer)=  2.45607E-08
 Non-SCF case, kpt   25 (  0.15000  0.00000  0.15000), residuals and eigenvalues=
  8.85E-13  5.38E-13  6.83E-13  6.61E-13  1.42E-13  4.38E-13  3.60E-13  4.91E-13
  7.14E-13  6.70E-13  4.84E-13  2.01E-13  3.72E-13  9.25E-13  1.57E-07
 -3.4189E+00 -1.9795E+00 -1.9794E+00 -1.9794E+00 -3.9133E-01  1.4823E-01
  2.0512E-01  2.0512E-01  2.6291E-01  2.8096E-01  2.9612E-01  2.9612E-01
  3.1611E-01  4.7531E-01  8.9388E-01
  prteigrs : nnsclo,ikpt=   50   25 max resid (incl. the buffer)=  1.56841E-07
 Non-SCF case, kpt   26 (  0.15625  0.00000  0.15625), residuals and eigenvalues=
  9.58E-13  4.30E-13  7.25E-13  6.58E-13  1.03E-13  4.09E-13  2.93E-13  7.68E-13
  2.56E-13  3.52E-13  5.14E-13  4.05E-13  1.93E-13  8.86E-14  4.03E-07
 -3.4189E+00 -1.9795E+00 -1.9794E+00 -1.9794E+00 -3.9035E-01  1.4463E-01
  2.0398E-01  2.0398E-01  2.6228E-01  2.8120E-01  2.9736E-01  2.9736E-01
  3.1715E-01  4.8002E-01  8.9016E-01
  prteigrs : nnsclo,ikpt=   50   26 max resid (incl. the buffer)=  4.02781E-07
 Non-SCF case, kpt   27 (  0.16250  0.00000  0.16250), residuals and eigenvalues=
  5.13E-13  2.71E-13  2.07E-13  1.51E-13  8.37E-14  3.23E-13  5.80E-13  3.73E-13
  2.10E-13  4.18E-13  4.96E-13  3.19E-13  5.79E-13  1.87E-13  3.85E-07
 -3.4189E+00 -1.9795E+00 -1.9794E+00 -1.9794E+00 -3.8935E-01  1.4111E-01
  2.0286E-01  2.0286E-01  2.6164E-01  2.8144E-01  2.9856E-01  2.9856E-01
  3.1813E-01  4.8475E-01  8.8654E-01
  prteigrs : nnsclo,ikpt=   50   27 max resid (incl. the buffer)=  3.85140E-07
 Non-SCF case, kpt   28 (  0.16875  0.00000  0.16875), residuals and eigenvalues=
  3.77E-13  6.46E-13  5.14E-13  4.67E-13  1.86E-13  1.69E-13  9.58E-13  2.59E-13
  2.32E-13  5.31E-13  4.55E-13  1.64E-13  3.75E-13  2.22E-13  8.19E-07
 -3.4189E+00 -1.9796E+00 -1.9794E+00 -1.9794E+00 -3.8833E-01  1.3767E-01
  2.0176E-01  2.0176E-01  2.6099E-01  2.8170E-01  2.9973E-01  2.9973E-01
  3.1907E-01  4.8949E-01  8.8300E-01
  prteigrs : nnsclo,ikpt=   50   28 max resid (incl. the buffer)=  8.19127E-07
 Non-SCF case, kpt   29 (  0.17500  0.00000  0.17500), residuals and eigenvalues=
  3.13E-13  2.60E-13  7.53E-13  7.13E-13  1.82E-13  4.78E-14  2.90E-13  3.18E-13
  8.98E-13  3.87E-13  8.12E-13  4.62E-13  1.58E-13  2.09E-13  6.22E-06
 -3.4188E+00 -1.9796E+00 -1.9794E+00 -1.9794E+00 -3.8728E-01  1.3431E-01
  2.0069E-01  2.0069E-01  2.6031E-01  2.8196E-01  3.0086E-01  3.0086E-01
  3.1997E-01  4.9423E-01  8.7955E-01
  prteigrs : nnsclo,ikpt=   50   29 max resid (incl. the buffer)=  6.21713E-06
 Non-SCF case, kpt   30 (  0.18125  0.00000  0.18125), residuals and eigenvalues=
  4.08E-13  2.51E-13  5.38E-13  2.72E-13  1.16E-13  1.88E-13  5.30E-13  1.82E-13
  4.40E-13  6.66E-13  2.37E-13  5.94E-13  3.59E-13  2.00E-13  4.65E-06
 -3.4188E+00 -1.9796E+00 -1.9794E+00 -1.9794E+00 -3.8622E-01  1.3104E-01
  1.9964E-01  1.9964E-01  2.5963E-01  2.8222E-01  3.0196E-01  3.0196E-01
  3.2081E-01  4.9895E-01  8.7619E-01
  prteigrs : nnsclo,ikpt=   50   30 max resid (incl. the buffer)=  4.65373E-06
 Non-SCF case, kpt   31 (  0.18750  0.00000  0.18750), residuals and eigenvalues=
  3.23E-13  5.74E-13  4.33E-13  2.15E-13  9.04E-13  1.55E-13  4.94E-13  7.20E-14
  2.19E-13  3.04E-13  3.45E-13  6.09E-13  3.37E-13  8.46E-13  1.23E-07
 -3.4188E+00 -1.9796E+00 -1.9794E+00 -1.9794E+00 -3.8514E-01  1.2786E-01
  1.9862E-01  1.9862E-01  2.5894E-01  2.8249E-01  3.0302E-01  3.0302E-01
  3.2162E-01  5.0365E-01  8.7291E-01
  prteigrs : nnsclo,ikpt=   50   31 max resid (incl. the buffer)=  1.22896E-07
 Non-SCF case, kpt   32 (  0.19375  0.00000  0.19375), residuals and eigenvalues=
  8.54E-13  4.22E-13  3.42E-13  1.90E-13  2.41E-13  1.74E-13  2.54E-13  2.19E-13
  1.45E-13  6.62E-13  2.69E-13  2.99E-13  5.96E-13  9.04E-13  1.96E-05
 -3.4188E+00 -1.9797E+00 -1.9794E+00 -1.9794E+00 -3.8405E-01  1.2477E-01
  1.9763E-01  1.9763E-01  2.5823E-01  2.8276E-01  3.0404E-01  3.0404E-01
  3.2237E-01  5.0831E-01  8.6974E-01
  prteigrs : nnsclo,ikpt=   50   32 max resid (incl. the buffer)=  1.95965E-05
 Non-SCF case, kpt   33 (  0.20000  0.00000  0.20000), residuals and eigenvalues=
  9.87E-13  7.20E-13  4.95E-13  3.17E-13  3.12E-13  9.45E-14  4.75E-13  7.92E-13
  1.83E-13  1.19E-13  2.11E-13  7.91E-13  1.78E-13  4.38E-13  3.31E-05
 -3.4188E+00 -1.9797E+00 -1.9794E+00 -1.9794E+00 -3.8294E-01  1.2178E-01
  1.9666E-01  1.9666E-01  2.5752E-01  2.8304E-01  3.0501E-01  3.0501E-01
  3.2309E-01  5.1292E-01  8.6664E-01
  prteigrs : nnsclo,ikpt=   50   33 max resid (incl. the buffer)=  3.30748E-05
 Non-SCF case, kpt   34 (  0.20625  0.00000  0.20625), residuals and eigenvalues=
  3.10E-13  9.52E-13  1.92E-13  6.06E-13  1.22E-13  5.16E-13  1.23E-13  6.08E-13
  2.04E-13  2.11E-13  5.92E-13  6.90E-13  2.27E-13  4.50E-13  8.21E-06
 -3.4188E+00 -1.9797E+00 -1.9794E+00 -1.9794E+00 -3.8182E-01  1.1888E-01
  1.9572E-01  1.9572E-01  2.5679E-01  2.8332E-01  3.0594E-01  3.0594E-01
  3.2376E-01  5.1747E-01  8.6362E-01
  prteigrs : nnsclo,ikpt=   50   34 max resid (incl. the buffer)=  8.21433E-06
 Non-SCF case, kpt   35 (  0.21250  0.00000  0.21250), residuals and eigenvalues=
  2.26E-13  1.85E-13  4.00E-13  4.04E-13  1.11E-13  7.24E-13  9.12E-13  7.31E-13
  5.67E-13  8.93E-13  8.74E-13  5.73E-13  6.20E-13  5.50E-13  9.76E-06
 -3.4188E+00 -1.9797E+00 -1.9794E+00 -1.9794E+00 -3.8069E-01  1.1609E-01
  1.9482E-01  1.9482E-01  2.5606E-01  2.8361E-01  3.0683E-01  3.0683E-01
  3.2439E-01  5.2196E-01  8.6071E-01
  prteigrs : nnsclo,ikpt=   50   35 max resid (incl. the buffer)=  9.76386E-06
 Non-SCF case, kpt   36 (  0.21875  0.00000  0.21875), residuals and eigenvalues=
  8.30E-13  2.38E-13  2.78E-13  3.51E-13  4.23E-13  7.79E-14  2.81E-13  3.15E-13
  2.72E-13  3.39E-13  8.39E-13  4.88E-13  5.36E-13  5.09E-13  5.23E-05
 -3.4188E+00 -1.9798E+00 -1.9795E+00 -1.9795E+00 -3.7955E-01  1.1339E-01
  1.9394E-01  1.9394E-01  2.5533E-01  2.8390E-01  3.0768E-01  3.0768E-01
  3.2498E-01  5.2636E-01  8.5796E-01
  prteigrs : nnsclo,ikpt=   50   36 max resid (incl. the buffer)=  5.22941E-05
 Non-SCF case, kpt   37 (  0.22500  0.00000  0.22500), residuals and eigenvalues=
  4.13E-13  3.21E-13  2.99E-13  2.84E-13  4.04E-13  1.72E-13  6.60E-13  8.97E-13
  4.78E-13  2.94E-13  8.36E-13  4.42E-13  2.49E-13  9.20E-13  6.22E-06
 -3.4188E+00 -1.9798E+00 -1.9795E+00 -1.9795E+00 -3.7841E-01  1.1080E-01
  1.9309E-01  1.9309E-01  2.5459E-01  2.8419E-01  3.0847E-01  3.0847E-01
  3.2553E-01  5.3067E-01  8.5509E-01
  prteigrs : nnsclo,ikpt=   50   37 max resid (incl. the buffer)=  6.22347E-06
 Non-SCF case, kpt   38 (  0.23125  0.00000  0.23125), residuals and eigenvalues=
  4.18E-13  5.21E-13  2.66E-13  4.65E-13  3.98E-13  1.82E-13  7.79E-13  3.48E-13
  6.10E-13  5.63E-13  3.81E-13  5.39E-13  2.80E-13  3.74E-13  4.17E-07
 -3.4188E+00 -1.9798E+00 -1.9795E+00 -1.9795E+00 -3.7726E-01  1.0832E-01
  1.9227E-01  1.9227E-01  2.5385E-01  2.8448E-01  3.0923E-01  3.0923E-01
  3.2604E-01  5.3487E-01  8.5230E-01
  prteigrs : nnsclo,ikpt=   50   38 max resid (incl. the buffer)=  4.16884E-07
 Non-SCF case, kpt   39 (  0.23750  0.00000  0.23750), residuals and eigenvalues=
  4.22E-13  7.53E-13  3.52E-13  6.05E-13  3.88E-13  2.01E-13  8.84E-13  4.00E-13
  7.24E-13  3.84E-13  4.17E-13  6.00E-13  3.99E-13  5.57E-13  1.34E-04
 -3.4188E+00 -1.9799E+00 -1.9795E+00 -1.9795E+00 -3.7612E-01  1.0594E-01
  1.9148E-01  1.9148E-01  2.5310E-01  2.8478E-01  3.0994E-01  3.0994E-01
  3.2650E-01  5.3897E-01  8.4830E-01
  prteigrs : nnsclo,ikpt=   50   39 max resid (incl. the buffer)=  1.34038E-04
 Non-SCF case, kpt   40 (  0.24375  0.00000  0.24375), residuals and eigenvalues=
  4.41E-13  1.51E-13  2.75E-13  1.92E-13  2.15E-13  2.97E-14  1.22E-13  1.19E-13
  1.42E-13  6.50E-13  7.02E-13  2.18E-13  1.14E-13  6.02E-13  4.44E-05
 -3.4188E+00 -1.9799E+00 -1.9795E+00 -1.9795E+00 -3.7497E-01  1.0367E-01
  1.9072E-01  1.9072E-01  2.5236E-01  2.8507E-01  3.1060E-01  3.1060E-01
  3.2692E-01  5.4294E-01  8.3655E-01
  prteigrs : nnsclo,ikpt=   50   40 max resid (incl. the buffer)=  4.43938E-05
 Non-SCF case, kpt   41 (  0.25000  0.00000  0.25000), residuals and eigenvalues=
  5.82E-13  1.50E-13  2.67E-13  1.57E-13  1.93E-13  2.77E-14  1.55E-13  1.16E-13
  9.67E-14  5.29E-13  5.90E-13  1.96E-13  7.85E-13  6.65E-13  2.40E-05
 -3.4188E+00 -1.9799E+00 -1.9795E+00 -1.9795E+00 -3.7383E-01  1.0151E-01
  1.8999E-01  1.8999E-01  2.5161E-01  2.8537E-01  3.1121E-01  3.1121E-01
  3.2730E-01  5.4678E-01  8.2866E-01
  prteigrs : nnsclo,ikpt=   50   41 max resid (incl. the buffer)=  2.40040E-05
 Non-SCF case, kpt   42 (  0.25625  0.00000  0.25625), residuals and eigenvalues=
  5.74E-13  1.31E-13  2.10E-13  1.19E-13  1.56E-13  2.71E-14  1.72E-13  1.64E-13
  8.79E-14  5.97E-13  6.49E-13  2.51E-13  8.14E-13  9.04E-13  8.82E-05
 -3.4188E+00 -1.9799E+00 -1.9795E+00 -1.9795E+00 -3.7269E-01  9.9461E-02
  1.8929E-01  1.8929E-01  2.5086E-01  2.8567E-01  3.1178E-01  3.1178E-01
  3.2763E-01  5.5047E-01  8.2139E-01
  prteigrs : nnsclo,ikpt=   50   42 max resid (incl. the buffer)=  8.81878E-05
 Non-SCF case, kpt   43 (  0.26250  0.00000  0.26250), residuals and eigenvalues=
  5.98E-13  1.03E-13  1.83E-13  9.37E-14  1.32E-13  4.98E-14  1.52E-13  2.00E-13
  9.02E-14  6.79E-13  6.53E-13  4.69E-13  1.75E-13  1.99E-13  6.98E-05
 -3.4188E+00 -1.9800E+00 -1.9795E+00 -1.9795E+00 -3.7156E-01  9.7520E-02
  1.8863E-01  1.8863E-01  2.5012E-01  2.8596E-01  3.1231E-01  3.1231E-01
  3.2791E-01  5.5401E-01  8.1442E-01
  prteigrs : nnsclo,ikpt=   50   43 max resid (incl. the buffer)=  6.98322E-05
 Non-SCF case, kpt   44 (  0.26875  0.00000  0.26875), residuals and eigenvalues=
  7.48E-13  4.46E-13  8.73E-13  2.81E-13  1.38E-13  1.70E-13  2.37E-13  6.91E-13
  8.09E-13  3.49E-13  3.05E-13  8.82E-13  7.47E-13  4.09E-13  1.81E-06
 -3.4188E+00 -1.9800E+00 -1.9795E+00 -1.9795E+00 -3.7043E-01  9.5691E-02
  1.8799E-01  1.8799E-01  2.4938E-01  2.8626E-01  3.1278E-01  3.1278E-01
  3.2815E-01  5.5738E-01  8.0748E-01
  prteigrs : nnsclo,ikpt=   50   44 max resid (incl. the buffer)=  1.81138E-06
 Non-SCF case, kpt   45 (  0.27500  0.00000  0.27500), residuals and eigenvalues=
  8.61E-13  8.88E-13  6.30E-13  2.07E-13  8.53E-13  2.09E-13  8.21E-14  7.88E-14
  3.97E-13  8.33E-13  2.97E-13  9.23E-13  8.84E-13  3.90E-13  4.92E-06
 -3.4188E+00 -1.9800E+00 -1.9796E+00 -1.9796E+00 -3.6932E-01  9.3971E-02
  1.8738E-01  1.8738E-01  2.4865E-01  2.8655E-01  3.1322E-01  3.1322E-01
  3.2834E-01  5.6058E-01  8.0094E-01
  prteigrs : nnsclo,ikpt=   50   45 max resid (incl. the buffer)=  4.92063E-06
 Non-SCF case, kpt   46 (  0.28125  0.00000  0.28125), residuals and eigenvalues=
  7.46E-13  3.64E-13  6.53E-13  2.28E-13  5.17E-13  8.98E-13  1.18E-13  1.27E-13
  7.35E-13  1.00E-13  2.75E-13  6.60E-13  6.41E-13  6.52E-13  4.53E-06
 -3.4188E+00 -1.9800E+00 -1.9796E+00 -1.9796E+00 -3.6822E-01  9.2360E-02
  1.8680E-01  1.8680E-01  2.4792E-01  2.8685E-01  3.1361E-01  3.1361E-01
  3.2849E-01  5.6359E-01  7.9468E-01
  prteigrs : nnsclo,ikpt=   50   46 max resid (incl. the buffer)=  4.53211E-06
 Non-SCF case, kpt   47 (  0.28750  0.00000  0.28750), residuals and eigenvalues=
  7.56E-13  2.71E-13  6.93E-13  6.31E-13  4.38E-13  1.02E-13  1.73E-13  2.23E-13
  7.14E-13  1.74E-13  4.40E-13  7.80E-13  8.13E-14  8.93E-13  2.76E-06
 -3.4188E+00 -1.9800E+00 -1.9796E+00 -1.9796E+00 -3.6714E-01  9.0859E-02
  1.8625E-01  1.8625E-01  2.4720E-01  2.8714E-01  3.1396E-01  3.1396E-01
  3.2858E-01  5.6640E-01  7.8870E-01
  prteigrs : nnsclo,ikpt=   50   47 max resid (incl. the buffer)=  2.75849E-06
 Non-SCF case, kpt   48 (  0.29375  0.00000  0.29375), residuals and eigenvalues=
  7.57E-13  3.12E-13  4.97E-13  2.72E-13  4.36E-13  2.99E-13  7.22E-13  3.24E-13
  8.65E-13  1.43E-13  8.42E-13  7.07E-13  2.41E-13  7.41E-13  1.61E-06
 -3.4188E+00 -1.9800E+00 -1.9796E+00 -1.9796E+00 -3.6607E-01  8.9465E-02
  1.8572E-01  1.8572E-01  2.4649E-01  2.8742E-01  3.1427E-01  3.1427E-01
  3.2862E-01  5.6901E-01  7.8301E-01
  prteigrs : nnsclo,ikpt=   50   48 max resid (incl. the buffer)=  1.61018E-06
 Non-SCF case, kpt   49 (  0.30000  0.00000  0.30000), residuals and eigenvalues=
  6.12E-13  3.56E-13  8.16E-13  4.50E-13  3.21E-13  9.17E-14  2.64E-13  1.64E-13
  3.88E-13  7.17E-13  8.80E-13  4.32E-13  2.36E-13  7.01E-13  1.91E-06
 -3.4188E+00 -1.9801E+00 -1.9796E+00 -1.9796E+00 -3.6502E-01  8.8178E-02
  1.8523E-01  1.8523E-01  2.4578E-01  2.8771E-01  3.1453E-01  3.1453E-01
  3.2861E-01  5.7140E-01  7.7763E-01
  prteigrs : nnsclo,ikpt=   50   49 max resid (incl. the buffer)=  1.91159E-06
 Non-SCF case, kpt   50 (  0.30625  0.00000  0.30625), residuals and eigenvalues=
  8.44E-13  6.91E-13  1.61E-13  1.43E-13  1.26E-13  7.87E-14  5.18E-13  3.89E-13
  5.85E-13  4.01E-13  7.87E-13  3.99E-13  5.70E-13  4.47E-13  1.10E-07
 -3.4188E+00 -1.9801E+00 -1.9796E+00 -1.9796E+00 -3.6398E-01  8.6996E-02
  1.8476E-01  1.8476E-01  2.4509E-01  2.8799E-01  3.1476E-01  3.1476E-01
  3.2855E-01  5.7357E-01  7.7256E-01
  prteigrs : nnsclo,ikpt=   50   50 max resid (incl. the buffer)=  1.09776E-07
 Non-SCF case, kpt   51 (  0.31250  0.00000  0.31250), residuals and eigenvalues=
  8.22E-13  6.78E-13  1.46E-13  1.25E-13  1.16E-13  7.61E-14  5.37E-13  4.05E-13
  6.51E-13  4.44E-13  8.37E-13  4.43E-13  5.39E-13  4.86E-13  6.70E-08
 -3.4188E+00 -1.9801E+00 -1.9796E+00 -1.9796E+00 -3.6297E-01  8.5917E-02
  1.8432E-01  1.8432E-01  2.4441E-01  2.8827E-01  3.1495E-01  3.1495E-01
  3.2843E-01  5.7551E-01  7.6781E-01
  prteigrs : nnsclo,ikpt=   50   51 max resid (incl. the buffer)=  6.70457E-08
 Non-SCF case, kpt   52 (  0.31875  0.00000  0.31875), residuals and eigenvalues=
  6.51E-13  9.52E-13  2.94E-13  2.35E-13  5.02E-13  1.39E-13  1.76E-13  1.27E-13
  2.38E-13  5.82E-13  3.23E-13  4.26E-13  9.49E-14  8.43E-13  4.74E-08
 -3.4188E+00 -1.9801E+00 -1.9796E+00 -1.9796E+00 -3.6199E-01  8.4940E-02
  1.8390E-01  1.8390E-01  2.4374E-01  2.8854E-01  3.1511E-01  3.1511E-01
  3.2827E-01  5.7722E-01  7.6338E-01
  prteigrs : nnsclo,ikpt=   50   52 max resid (incl. the buffer)=  4.74304E-08
 Non-SCF case, kpt   53 (  0.32500  0.00000  0.32500), residuals and eigenvalues=
  6.32E-13  9.74E-13  3.26E-13  2.07E-13  6.21E-13  1.50E-13  2.26E-13  1.45E-13
  2.83E-13  7.53E-13  4.33E-13  4.16E-13  9.14E-14  7.79E-13  4.42E-08
 -3.4188E+00 -1.9802E+00 -1.9796E+00 -1.9796E+00 -3.6102E-01  8.4062E-02
  1.8351E-01  1.8351E-01  2.4308E-01  2.8881E-01  3.1524E-01  3.1524E-01
  3.2805E-01  5.7870E-01  7.5928E-01
  prteigrs : nnsclo,ikpt=   50   53 max resid (incl. the buffer)=  4.41614E-08
 Non-SCF case, kpt   54 (  0.33125  0.00000  0.33125), residuals and eigenvalues=
  6.90E-13  7.27E-13  1.96E-13  1.49E-13  1.44E-13  6.00E-13  4.30E-13  3.72E-13
  6.96E-13  3.31E-13  3.31E-13  8.32E-13  6.52E-13  5.23E-13  6.11E-08
 -3.4188E+00 -1.9802E+00 -1.9797E+00 -1.9797E+00 -3.6008E-01  8.3279E-02
  1.8315E-01  1.8315E-01  2.4243E-01  2.8907E-01  3.1533E-01  3.1533E-01
  3.2778E-01  5.7994E-01  7.5551E-01
  prteigrs : nnsclo,ikpt=   50   54 max resid (incl. the buffer)=  6.10737E-08
 Non-SCF case, kpt   55 (  0.33750  0.00000  0.33750), residuals and eigenvalues=
  5.96E-13  8.68E-13  1.63E-13  1.89E-13  2.67E-13  5.57E-13  3.54E-13  2.66E-13
  6.60E-13  5.41E-13  3.88E-13  6.19E-13  9.01E-13  6.59E-13  7.20E-08
 -3.4188E+00 -1.9802E+00 -1.9797E+00 -1.9797E+00 -3.5917E-01  8.2590E-02
  1.8281E-01  1.8281E-01  2.4181E-01  2.8933E-01  3.1539E-01  3.1539E-01
  3.2747E-01  5.8095E-01  7.5206E-01
  prteigrs : nnsclo,ikpt=   50   55 max resid (incl. the buffer)=  7.20439E-08
 Non-SCF case, kpt   56 (  0.34375  0.00000  0.34375), residuals and eigenvalues=
  6.06E-13  8.86E-13  1.62E-13  1.69E-13  3.09E-13  5.31E-13  3.65E-13  2.48E-13
  7.13E-13  5.63E-13  4.12E-13  7.27E-13  9.11E-13  5.48E-13  9.57E-08
 -3.4188E+00 -1.9802E+00 -1.9797E+00 -1.9797E+00 -3.5829E-01  8.1991E-02
  1.8249E-01  1.8249E-01  2.4119E-01  2.8959E-01  3.1543E-01  3.1543E-01
  3.2710E-01  5.8173E-01  7.4894E-01
  prteigrs : nnsclo,ikpt=   50   56 max resid (incl. the buffer)=  9.56684E-08
 Non-SCF case, kpt   57 (  0.35000  0.00000  0.35000), residuals and eigenvalues=
  6.38E-13  9.24E-13  1.84E-13  1.50E-13  2.91E-13  5.25E-13  3.82E-13  2.40E-13
  7.69E-13  5.78E-13  4.05E-13  8.14E-13  9.32E-13  4.24E-13  1.28E-07
 -3.4188E+00 -1.9802E+00 -1.9797E+00 -1.9797E+00 -3.5743E-01  8.1478E-02
  1.8219E-01  1.8219E-01  2.4060E-01  2.8983E-01  3.1545E-01  3.1545E-01
  3.2670E-01  5.8230E-01  7.4614E-01
  prteigrs : nnsclo,ikpt=   50   57 max resid (incl. the buffer)=  1.27626E-07
 Non-SCF case, kpt   58 (  0.35625  0.00000  0.35625), residuals and eigenvalues=
  6.99E-13  2.23E-13  2.21E-13  1.45E-13  2.48E-13  5.44E-13  4.04E-13  2.41E-13
  8.35E-13  6.69E-13  3.81E-13  8.32E-13  9.52E-13  3.18E-13  1.67E-07
 -3.4188E+00 -1.9802E+00 -1.9797E+00 -1.9797E+00 -3.5661E-01  8.1047E-02
  1.8192E-01  1.8192E-01  2.4002E-01  2.9007E-01  3.1544E-01  3.1544E-01
  3.2624E-01  5.8266E-01  7.4363E-01
  prteigrs : nnsclo,ikpt=   50   58 max resid (incl. the buffer)=  1.66620E-07
 Non-SCF case, kpt   59 (  0.36250  0.00000  0.36250), residuals and eigenvalues=
  7.91E-13  2.81E-13  3.24E-13  1.74E-13  3.03E-13  5.74E-13  4.35E-13  2.44E-13
  9.17E-13  8.76E-13  3.46E-13  8.20E-13  9.97E-13  2.48E-13  2.14E-07
 -3.4188E+00 -1.9803E+00 -1.9797E+00 -1.9797E+00 -3.5581E-01  8.0693E-02
  1.8166E-01  1.8166E-01  2.3946E-01  2.9030E-01  3.1541E-01  3.1541E-01
  3.2575E-01  5.8282E-01  7.4142E-01
  prteigrs : nnsclo,ikpt=   50   59 max resid (incl. the buffer)=  2.13701E-07
 Non-SCF case, kpt   60 (  0.36875  0.00000  0.36875), residuals and eigenvalues=
  2.59E-13  4.88E-13  6.52E-13  5.09E-13  8.41E-14  5.99E-13  1.04E-13  1.70E-13
  4.09E-13  8.70E-13  7.13E-13  1.26E-13  2.54E-13  8.10E-13  7.66E-07
 -3.4188E+00 -1.9803E+00 -1.9797E+00 -1.9797E+00 -3.5505E-01  8.0411E-02
  1.8143E-01  1.8143E-01  2.3892E-01  2.9053E-01  3.1536E-01  3.1536E-01
  3.2522E-01  5.8281E-01  7.3949E-01
  prteigrs : nnsclo,ikpt=   50   60 max resid (incl. the buffer)=  7.65921E-07
 Non-SCF case, kpt   61 (  0.37500  0.00000  0.37500), residuals and eigenvalues=
  4.42E-13  7.73E-13  2.86E-13  2.67E-13  5.65E-13  4.37E-13  7.42E-13  2.68E-13
  2.77E-13  5.41E-13  1.62E-13  9.27E-13  4.19E-13  5.50E-13  1.16E-07
 -3.4188E+00 -1.9803E+00 -1.9797E+00 -1.9797E+00 -3.5432E-01  8.0198E-02
  1.8122E-01  1.8122E-01  2.3840E-01  2.9074E-01  3.1529E-01  3.1529E-01
  3.2466E-01  5.8264E-01  7.3781E-01
  prteigrs : nnsclo,ikpt=   50   61 max resid (incl. the buffer)=  1.16211E-07
 Non-SCF case, kpt   62 (  0.38125  0.00000  0.38125), residuals and eigenvalues=
  5.39E-13  6.48E-13  9.59E-13  6.00E-13  2.71E-13  2.64E-13  4.41E-13  7.13E-13
  4.45E-13  1.72E-13  7.51E-13  3.41E-13  1.87E-13  1.36E-13  9.80E-08
 -3.4188E+00 -1.9803E+00 -1.9797E+00 -1.9797E+00 -3.5362E-01  8.0046E-02
  1.8102E-01  1.8102E-01  2.3790E-01  2.9095E-01  3.1521E-01  3.1521E-01
  3.2407E-01  5.8233E-01  7.3638E-01
  prteigrs : nnsclo,ikpt=   50   62 max resid (incl. the buffer)=  9.79706E-08
 Non-SCF case, kpt   63 (  0.38750  0.00000  0.38750), residuals and eigenvalues=
  3.53E-13  4.34E-13  7.24E-13  3.96E-13  2.02E-13  1.81E-13  3.82E-13  8.20E-13
  5.81E-13  2.00E-13  8.77E-13  3.03E-13  1.74E-13  1.04E-13  5.92E-08
 -3.4188E+00 -1.9803E+00 -1.9797E+00 -1.9797E+00 -3.5296E-01  7.9952E-02
  1.8084E-01  1.8084E-01  2.3742E-01  2.9115E-01  3.1512E-01  3.1512E-01
  3.2345E-01  5.8190E-01  7.3516E-01
  prteigrs : nnsclo,ikpt=   50   63 max resid (incl. the buffer)=  5.91647E-08
 Non-SCF case, kpt   64 (  0.39375  0.00000  0.39375), residuals and eigenvalues=
  2.84E-13  1.10E-13  7.30E-13  2.02E-13  7.71E-14  1.20E-13  1.09E-13  2.29E-13
  3.44E-13  9.77E-13  2.72E-13  1.47E-13  3.07E-13  4.60E-13  3.86E-09
 -3.4187E+00 -1.9803E+00 -1.9797E+00 -1.9797E+00 -3.5233E-01  7.9908E-02
  1.8067E-01  1.8067E-01  2.3697E-01  2.9134E-01  3.1502E-01  3.1502E-01
  3.2281E-01  5.8136E-01  7.3414E-01
  prteigrs : nnsclo,ikpt=   50   64 max resid (incl. the buffer)=  3.85568E-09
 Non-SCF case, kpt   65 (  0.40000  0.00000  0.40000), residuals and eigenvalues=
  2.65E-13  1.33E-13  6.29E-13  2.60E-13  7.63E-14  1.56E-13  1.67E-13  3.05E-13
  3.51E-13  1.68E-13  8.46E-13  1.43E-13  8.36E-13  5.45E-13  9.77E-08
 -3.4187E+00 -1.9804E+00 -1.9797E+00 -1.9797E+00 -3.5173E-01  7.9910E-02
  1.8052E-01  1.8052E-01  2.3653E-01  2.9153E-01  3.1491E-01  3.1491E-01
  3.2216E-01  5.8075E-01  7.3330E-01
  prteigrs : nnsclo,ikpt=   50   65 max resid (incl. the buffer)=  9.76610E-08
 Non-SCF case, kpt   66 (  0.40625  0.00000  0.40625), residuals and eigenvalues=
  2.32E-13  3.69E-13  8.47E-13  5.00E-13  7.27E-14  2.10E-13  3.24E-13  4.47E-13
  3.91E-13  3.86E-13  6.90E-13  2.27E-13  8.53E-13  6.09E-13  5.32E-07
 -3.4187E+00 -1.9804E+00 -1.9797E+00 -1.9797E+00 -3.5118E-01  7.9952E-02
  1.8039E-01  1.8039E-01  2.3612E-01  2.9170E-01  3.1479E-01  3.1479E-01
  3.2150E-01  5.8008E-01  7.3261E-01
  prteigrs : nnsclo,ikpt=   50   66 max resid (incl. the buffer)=  5.32032E-07
 Non-SCF case, kpt   67 (  0.41250  0.00000  0.41250), residuals and eigenvalues=
  1.89E-13  6.96E-13  7.26E-13  4.97E-13  6.38E-14  2.79E-13  7.67E-14  1.76E-13
  4.78E-13  9.64E-13  8.71E-13  5.00E-13  3.33E-13  7.05E-13  8.22E-07
 -3.4187E+00 -1.9804E+00 -1.9797E+00 -1.9797E+00 -3.5065E-01  8.0029E-02
  1.8026E-01  1.8026E-01  2.3573E-01  2.9186E-01  3.1468E-01  3.1468E-01
  3.2085E-01  5.7937E-01  7.3206E-01
  prteigrs : nnsclo,ikpt=   50   67 max resid (incl. the buffer)=  8.22221E-07
 Non-SCF case, kpt   68 (  0.41875  0.00000  0.41875), residuals and eigenvalues=
  8.29E-13  4.96E-13  5.84E-13  6.18E-13  4.45E-13  1.68E-13  1.23E-13  1.83E-13
  8.65E-13  2.08E-13  5.54E-13  6.47E-13  7.70E-13  5.10E-13  3.52E-07
 -3.4187E+00 -1.9804E+00 -1.9797E+00 -1.9797E+00 -3.5016E-01  8.0134E-02
  1.8015E-01  1.8015E-01  2.3537E-01  2.9201E-01  3.1456E-01  3.1456E-01
  3.2020E-01  5.7863E-01  7.3163E-01
  prteigrs : nnsclo,ikpt=   50   68 max resid (incl. the buffer)=  3.52294E-07
 Non-SCF case, kpt   69 (  0.42500  0.00000  0.42500), residuals and eigenvalues=
  8.75E-13  1.65E-13  2.51E-13  9.25E-13  3.62E-13  4.67E-13  2.08E-13  1.08E-13
  3.07E-13  3.62E-13  5.77E-13  3.12E-13  4.51E-13  3.99E-13  8.71E-09
 -3.4187E+00 -1.9804E+00 -1.9797E+00 -1.9797E+00 -3.4971E-01  8.0261E-02
  1.8006E-01  1.8006E-01  2.3504E-01  2.9215E-01  3.1444E-01  3.1444E-01
  3.1956E-01  5.7789E-01  7.3130E-01
  prteigrs : nnsclo,ikpt=   50   69 max resid (incl. the buffer)=  8.71050E-09
 Non-SCF case, kpt   70 (  0.43125  0.00000  0.43125), residuals and eigenvalues=
  8.76E-13  1.43E-13  2.21E-13  6.79E-13  3.13E-13  4.28E-13  8.58E-13  1.61E-13
  2.73E-13  3.45E-13  6.48E-13  3.45E-13  4.14E-13  3.09E-13  2.67E-09
 -3.4187E+00 -1.9804E+00 -1.9797E+00 -1.9797E+00 -3.4929E-01  8.0405E-02
  1.7997E-01  1.7997E-01  2.3472E-01  2.9229E-01  3.1432E-01  3.1432E-01
  3.1895E-01  5.7716E-01  7.3105E-01
  prteigrs : nnsclo,ikpt=   50   70 max resid (incl. the buffer)=  2.66760E-09
 Non-SCF case, kpt   71 (  0.43750  0.00000  0.43750), residuals and eigenvalues=
  8.78E-13  1.22E-13  1.89E-13  4.76E-13  2.76E-13  4.01E-13  7.59E-13  1.36E-13
  2.42E-13  3.17E-13  7.19E-13  3.77E-13  3.57E-13  2.40E-13  9.19E-10
 -3.4187E+00 -1.9804E+00 -1.9797E+00 -1.9797E+00 -3.4891E-01  8.0559E-02
  1.7989E-01  1.7989E-01  2.3444E-01  2.9241E-01  3.1421E-01  3.1421E-01
  3.1836E-01  5.7645E-01  7.3088E-01
  prteigrs : nnsclo,ikpt=   50   71 max resid (incl. the buffer)=  9.18970E-10
 Non-SCF case, kpt   72 (  0.44375  0.00000  0.44375), residuals and eigenvalues=
  8.83E-13  9.06E-13  1.64E-13  3.50E-13  2.53E-13  3.81E-13  6.19E-13  7.15E-14
  2.12E-13  3.13E-13  7.64E-13  4.30E-13  3.07E-13  1.93E-13  6.38E-10
 -3.4187E+00 -1.9804E+00 -1.9797E+00 -1.9797E+00 -3.4857E-01  8.0717E-02
  1.7983E-01  1.7983E-01  2.3418E-01  2.9252E-01  3.1411E-01  3.1411E-01
  3.1780E-01  5.7577E-01  7.3075E-01
  prteigrs : nnsclo,ikpt=   50   72 max resid (incl. the buffer)=  6.38141E-10
 Non-SCF case, kpt   73 (  0.45000  0.00000  0.45000), residuals and eigenvalues=
  8.92E-13  8.49E-13  1.49E-13  2.94E-13  2.44E-13  3.70E-13  5.59E-13  6.62E-14
  1.87E-13  3.56E-13  7.90E-13  5.33E-13  2.79E-13  1.61E-13  8.83E-10
 -3.4187E+00 -1.9804E+00 -1.9798E+00 -1.9798E+00 -3.4826E-01  8.0875E-02
  1.7977E-01  1.7977E-01  2.3394E-01  2.9261E-01  3.1401E-01  3.1401E-01
  3.1728E-01  5.7514E-01  7.3067E-01
  prteigrs : nnsclo,ikpt=   50   73 max resid (incl. the buffer)=  8.82714E-10
 Non-SCF case, kpt   74 (  0.45625  0.00000  0.45625), residuals and eigenvalues=
  6.87E-13  8.75E-13  6.99E-13  1.54E-13  6.80E-13  5.85E-13  3.81E-13  2.77E-13
  3.44E-13  5.07E-13  6.93E-13  1.56E-13  2.69E-13  2.31E-13  1.15E-07
 -3.4187E+00 -1.9805E+00 -1.9798E+00 -1.9798E+00 -3.4798E-01  8.1027E-02
  1.7972E-01  1.7972E-01  2.3374E-01  2.9270E-01  3.1391E-01  3.1391E-01
  3.1681E-01  5.7457E-01  7.3063E-01
  prteigrs : nnsclo,ikpt=   50   74 max resid (incl. the buffer)=  1.15399E-07
 Non-SCF case, kpt   75 (  0.46250  0.00000  0.46250), residuals and eigenvalues=
  3.71E-13  3.70E-13  4.61E-13  7.27E-13  3.30E-13  8.15E-13  5.66E-13  1.48E-13
  2.23E-13  3.05E-13  3.64E-13  6.35E-13  3.62E-13  2.15E-13  1.14E-07
 -3.4187E+00 -1.9805E+00 -1.9798E+00 -1.9798E+00 -3.4775E-01  8.1169E-02
  1.7967E-01  1.7967E-01  2.3356E-01  2.9278E-01  3.1383E-01  3.1383E-01
  3.1638E-01  5.7405E-01  7.3061E-01
  prteigrs : nnsclo,ikpt=   50   75 max resid (incl. the buffer)=  1.13817E-07
 Non-SCF case, kpt   76 (  0.46875  0.00000  0.46875), residuals and eigenvalues=
  3.36E-13  4.43E-13  8.02E-13  6.10E-13  4.01E-13  2.74E-13  4.87E-13  8.26E-13
  1.27E-13  1.55E-13  5.38E-13  4.42E-13  9.63E-13  1.53E-13  8.76E-07
 -3.4187E+00 -1.9805E+00 -1.9798E+00 -1.9798E+00 -3.4755E-01  8.1296E-02
  1.7964E-01  1.7964E-01  2.3340E-01  2.9284E-01  3.1376E-01  3.1376E-01
  3.1602E-01  5.7361E-01  7.3060E-01
  prteigrs : nnsclo,ikpt=   50   76 max resid (incl. the buffer)=  8.76050E-07
 Non-SCF case, kpt   77 (  0.47500  0.00000  0.47500), residuals and eigenvalues=
  3.11E-13  6.24E-13  7.24E-13  7.11E-13  3.93E-13  3.74E-13  5.01E-13  4.19E-13
  1.21E-13  1.57E-13  7.54E-13  9.59E-13  4.93E-13  6.36E-13  1.07E-06
 -3.4187E+00 -1.9805E+00 -1.9798E+00 -1.9798E+00 -3.4739E-01  8.1406E-02
  1.7961E-01  1.7961E-01  2.3328E-01  2.9289E-01  3.1370E-01  3.1370E-01
  3.1571E-01  5.7323E-01  7.3060E-01
  prteigrs : nnsclo,ikpt=   50   77 max resid (incl. the buffer)=  1.06788E-06
 Non-SCF case, kpt   78 (  0.48125  0.00000  0.48125), residuals and eigenvalues=
  2.66E-13  7.24E-13  9.02E-13  8.52E-13  4.05E-13  5.51E-13  5.60E-13  3.47E-13
  7.62E-13  1.47E-13  4.84E-13  5.39E-13  3.04E-13  1.65E-13  9.97E-07
 -3.4187E+00 -1.9805E+00 -1.9798E+00 -1.9798E+00 -3.4726E-01  8.1494E-02
  1.7959E-01  1.7959E-01  2.3318E-01  2.9293E-01  3.1365E-01  3.1365E-01
  3.1547E-01  5.7294E-01  7.3061E-01
  prteigrs : nnsclo,ikpt=   50   78 max resid (incl. the buffer)=  9.97087E-07
 Non-SCF case, kpt   79 (  0.48750  0.00000  0.48750), residuals and eigenvalues=
  2.56E-13  1.13E-13  9.94E-13  1.14E-13  4.18E-13  2.43E-13  5.41E-13  4.19E-13
  7.30E-13  3.19E-13  7.73E-13  3.96E-13  8.97E-13  5.29E-13  1.37E-06
 -3.4187E+00 -1.9805E+00 -1.9798E+00 -1.9798E+00 -3.4717E-01  8.1559E-02
  1.7957E-01  1.7957E-01  2.3311E-01  2.9296E-01  3.1362E-01  3.1362E-01
  3.1529E-01  5.7273E-01  7.3062E-01
  prteigrs : nnsclo,ikpt=   50   79 max resid (incl. the buffer)=  1.36549E-06
 Non-SCF case, kpt   80 (  0.49375  0.00000  0.49375), residuals and eigenvalues=
  5.13E-13  8.75E-13  4.18E-13  1.58E-13  7.83E-13  6.66E-13  6.01E-13  1.84E-13
  4.08E-13  3.67E-13  9.81E-13  5.80E-13  6.79E-13  7.00E-13  1.33E-06
 -3.4187E+00 -1.9805E+00 -1.9798E+00 -1.9798E+00 -3.4711E-01  8.1598E-02
  1.7956E-01  1.7956E-01  2.3307E-01  2.9298E-01  3.1360E-01  3.1360E-01
  3.1518E-01  5.7260E-01  7.3062E-01
  prteigrs : nnsclo,ikpt=   50   80 max resid (incl. the buffer)=  1.33395E-06
 Non-SCF case, kpt   81 (  0.50000  0.00000  0.50000), residuals and eigenvalues=
  9.16E-13  1.09E-13  3.62E-13  1.54E-13  5.79E-13  1.97E-13  6.26E-13  3.70E-13
  5.90E-13  4.97E-13  3.39E-13  1.19E-13  6.32E-13  9.66E-13  9.15E-07
 -3.4187E+00 -1.9805E+00 -1.9798E+00 -1.9798E+00 -3.4709E-01  8.1611E-02
  1.7956E-01  1.7956E-01  2.3305E-01  2.9299E-01  3.1359E-01  3.1359E-01
  3.1515E-01  5.7256E-01  7.3063E-01
  prteigrs : nnsclo,ikpt=   50   81 max resid (incl. the buffer)=  9.14556E-07
 Non-SCF case, kpt   82 (  0.49844  0.00469  0.50313), residuals and eigenvalues=
  2.56E-13  8.74E-13  5.36E-13  4.67E-13  8.97E-13  3.56E-13  8.49E-14  6.89E-13
  2.04E-13  3.47E-13  1.04E-13  8.38E-13  1.71E-13  3.54E-13  6.10E-07
 -3.4187E+00 -1.9805E+00 -1.9798E+00 -1.9798E+00 -3.4709E-01  8.1621E-02
  1.7948E-01  1.7949E-01  2.3313E-01  2.9303E-01  3.1359E-01  3.1359E-01
  3.1516E-01  5.7261E-01  7.3062E-01
  prteigrs : nnsclo,ikpt=   50   82 max resid (incl. the buffer)=  6.10294E-07
 Non-SCF case, kpt   83 (  0.49688  0.00938  0.50625), residuals and eigenvalues=
  2.44E-13  7.17E-13  4.18E-13  3.53E-13  2.05E-13  4.33E-13  1.34E-13  4.37E-13
  2.59E-13  3.46E-13  1.31E-13  3.21E-13  4.78E-13  4.68E-13  6.70E-07
 -3.4187E+00 -1.9805E+00 -1.9798E+00 -1.9798E+00 -3.4708E-01  8.1650E-02
  1.7926E-01  1.7930E-01  2.3336E-01  2.9318E-01  3.1358E-01  3.1359E-01
  3.1520E-01  5.7278E-01  7.3061E-01
  prteigrs : nnsclo,ikpt=   50   83 max resid (incl. the buffer)=  6.69692E-07
 Non-SCF case, kpt   84 (  0.49531  0.01406  0.50938), residuals and eigenvalues=
  4.25E-13  3.67E-13  2.66E-13  2.32E-13  5.01E-13  3.67E-13  1.17E-13  7.02E-13
  1.64E-13  2.38E-13  9.68E-13  3.91E-13  6.84E-13  5.60E-13  1.49E-07
 -3.4187E+00 -1.9805E+00 -1.9798E+00 -1.9798E+00 -3.4707E-01  8.1698E-02
  1.7889E-01  1.7897E-01  2.3375E-01  2.9342E-01  3.1358E-01  3.1359E-01
  3.1526E-01  5.7305E-01  7.3060E-01
  prteigrs : nnsclo,ikpt=   50   84 max resid (incl. the buffer)=  1.48955E-07
 Non-SCF case, kpt   85 (  0.49375  0.01875  0.51250), residuals and eigenvalues=
  3.84E-13  3.67E-13  2.85E-13  2.16E-13  4.04E-13  3.07E-13  1.12E-13  4.46E-13
  2.07E-13  3.21E-13  7.16E-13  3.36E-13  8.57E-13  2.77E-13  1.32E-07
 -3.4187E+00 -1.9805E+00 -1.9798E+00 -1.9798E+00 -3.4705E-01  8.1765E-02
  1.7838E-01  1.7852E-01  2.3428E-01  2.9374E-01  3.1357E-01  3.1360E-01
  3.1535E-01  5.7344E-01  7.3058E-01
  prteigrs : nnsclo,ikpt=   50   85 max resid (incl. the buffer)=  1.31840E-07
 Non-SCF case, kpt   86 (  0.49219  0.02344  0.51562), residuals and eigenvalues=
  3.60E-13  4.35E-13  3.67E-13  2.46E-13  3.37E-13  3.20E-13  1.10E-13  2.74E-13
  2.29E-13  3.28E-13  2.74E-13  1.90E-13  2.31E-13  1.35E-13  1.18E-07
 -3.4187E+00 -1.9805E+00 -1.9798E+00 -1.9798E+00 -3.4703E-01  8.1851E-02
  1.7774E-01  1.7795E-01  2.3494E-01  2.9416E-01  3.1356E-01  3.1360E-01
  3.1546E-01  5.7393E-01  7.3055E-01
  prteigrs : nnsclo,ikpt=   50   86 max resid (incl. the buffer)=  1.17860E-07
 Non-SCF case, kpt   87 (  0.49063  0.02812  0.51875), residuals and eigenvalues=
  5.46E-13  2.72E-13  4.28E-13  5.56E-13  4.07E-14  7.04E-13  9.66E-14  9.58E-13
  8.89E-13  3.84E-13  2.22E-13  3.80E-13  8.77E-13  6.94E-13  1.02E-06
 -3.4187E+00 -1.9805E+00 -1.9798E+00 -1.9798E+00 -3.4700E-01  8.1955E-02
  1.7698E-01  1.7726E-01  2.3573E-01  2.9464E-01  3.1354E-01  3.1361E-01
  3.1561E-01  5.7453E-01  7.3052E-01
  prteigrs : nnsclo,ikpt=   50   87 max resid (incl. the buffer)=  1.01862E-06
 Non-SCF case, kpt   88 (  0.48906  0.03281  0.52187), residuals and eigenvalues=
  8.25E-13  2.47E-13  3.81E-13  4.94E-13  3.01E-13  3.37E-13  5.27E-13  9.50E-13
  3.64E-13  7.32E-13  1.39E-13  1.58E-13  1.92E-13  2.96E-13  1.86E-05
 -3.4187E+00 -1.9805E+00 -1.9798E+00 -1.9798E+00 -3.4697E-01  8.2078E-02
  1.7611E-01  1.7646E-01  2.3663E-01  2.9520E-01  3.1352E-01  3.1361E-01
  3.1578E-01  5.7524E-01  7.3049E-01
  prteigrs : nnsclo,ikpt=   50   88 max resid (incl. the buffer)=  1.85799E-05
 Non-SCF case, kpt   89 (  0.48750  0.03750  0.52500), residuals and eigenvalues=
  6.57E-13  6.20E-13  5.23E-13  9.19E-13  3.74E-13  3.96E-13  9.53E-13  8.10E-13
  9.89E-13  1.15E-13  2.27E-13  7.97E-13  7.37E-13  7.54E-13  3.05E-06
 -3.4187E+00 -1.9805E+00 -1.9798E+00 -1.9798E+00 -3.4693E-01  8.2219E-02
  1.7514E-01  1.7556E-01  2.3764E-01  2.9582E-01  3.1350E-01  3.1362E-01
  3.1599E-01  5.7606E-01  7.3043E-01
  prteigrs : nnsclo,ikpt=   50   89 max resid (incl. the buffer)=  3.05251E-06
 Non-SCF case, kpt   90 (  0.48594  0.04219  0.52812), residuals and eigenvalues=
  7.87E-13  7.56E-13  6.37E-13  2.89E-13  3.48E-13  3.34E-13  7.25E-13  5.96E-13
[...]
             ecut      2.50000000E+01 Hartree
           ecutsm      5.00000000E-01 Hartree
           etotal1    -1.8708463500E+02
            fcart1    -0.0000000000E+00 -0.0000000000E+00 -0.0000000000E+00
                      -0.0000000000E+00 -0.0000000000E+00 -0.0000000000E+00
-          fftalg         312
           getden1          0
           getden2          1
           iatsph2       1    2
             iscf1         17
             iscf2         -2
           istwfk2       2    0    0    0    0    0    0    0    0    0
                         0    0    0    0    0    0    0    0    0    0
                         0    0    0    0    0    0    0    0    0    0
                         0    0    0    0    0    0    0    0    0    0
                         0    0    0    0    0    0    0    0    0    0
                       outvar_i_n : Printing only first  50 k-points.
           jdtset        1    2
              kpt1     4.16666667E-02  4.16666667E-02  4.16666667E-02
                       1.25000000E-01  4.16666667E-02  4.16666667E-02
                       2.08333333E-01  4.16666667E-02  4.16666667E-02
                       2.91666667E-01  4.16666667E-02  4.16666667E-02
                       3.75000000E-01  4.16666667E-02  4.16666667E-02
                       4.58333333E-01  4.16666667E-02  4.16666667E-02
                      -4.58333333E-01  4.16666667E-02  4.16666667E-02
                      -3.75000000E-01  4.16666667E-02  4.16666667E-02
                      -2.91666667E-01  4.16666667E-02  4.16666667E-02
                      -2.08333333E-01  4.16666667E-02  4.16666667E-02
                      -1.25000000E-01  4.16666667E-02  4.16666667E-02
                      -4.16666667E-02  4.16666667E-02  4.16666667E-02
                       1.25000000E-01  1.25000000E-01  4.16666667E-02
                       2.08333333E-01  1.25000000E-01  4.16666667E-02
                       2.91666667E-01  1.25000000E-01  4.16666667E-02
                       3.75000000E-01  1.25000000E-01  4.16666667E-02
                       4.58333333E-01  1.25000000E-01  4.16666667E-02
                      -4.58333333E-01  1.25000000E-01  4.16666667E-02
                      -3.75000000E-01  1.25000000E-01  4.16666667E-02
                      -2.91666667E-01  1.25000000E-01  4.16666667E-02
                      -2.08333333E-01  1.25000000E-01  4.16666667E-02
                      -1.25000000E-01  1.25000000E-01  4.16666667E-02
                      -4.16666667E-02  1.25000000E-01  4.16666667E-02
                       2.08333333E-01  2.08333333E-01  4.16666667E-02
                       2.91666667E-01  2.08333333E-01  4.16666667E-02
                       3.75000000E-01  2.08333333E-01  4.16666667E-02
                       4.58333333E-01  2.08333333E-01  4.16666667E-02
                      -4.58333333E-01  2.08333333E-01  4.16666667E-02
                      -3.75000000E-01  2.08333333E-01  4.16666667E-02
                      -2.91666667E-01  2.08333333E-01  4.16666667E-02
                      -2.08333333E-01  2.08333333E-01  4.16666667E-02
                      -1.25000000E-01  2.08333333E-01  4.16666667E-02
                      -4.16666667E-02  2.08333333E-01  4.16666667E-02
                       2.91666667E-01  2.91666667E-01  4.16666667E-02
                       3.75000000E-01  2.91666667E-01  4.16666667E-02
                       4.58333333E-01  2.91666667E-01  4.16666667E-02
                      -4.58333333E-01  2.91666667E-01  4.16666667E-02
                      -3.75000000E-01  2.91666667E-01  4.16666667E-02
                      -2.91666667E-01  2.91666667E-01  4.16666667E-02
                      -2.08333333E-01  2.91666667E-01  4.16666667E-02
                      -1.25000000E-01  2.91666667E-01  4.16666667E-02
                      -4.16666667E-02  2.91666667E-01  4.16666667E-02
                       3.75000000E-01  3.75000000E-01  4.16666667E-02
                       4.58333333E-01  3.75000000E-01  4.16666667E-02
                      -4.58333333E-01  3.75000000E-01  4.16666667E-02
                      -3.75000000E-01  3.75000000E-01  4.16666667E-02
                      -2.91666667E-01  3.75000000E-01  4.16666667E-02
                      -2.08333333E-01  3.75000000E-01  4.16666667E-02
                      -1.25000000E-01  3.75000000E-01  4.16666667E-02
                      -4.16666667E-02  3.75000000E-01  4.16666667E-02
              kpt2     0.00000000E+00  0.00000000E+00  0.00000000E+00
                       6.25000000E-03  0.00000000E+00  6.25000000E-03
                       1.25000000E-02  0.00000000E+00  1.25000000E-02
                       1.87500000E-02  0.00000000E+00  1.87500000E-02
                       2.50000000E-02  0.00000000E+00  2.50000000E-02
                       3.12500000E-02  0.00000000E+00  3.12500000E-02
                       3.75000000E-02  0.00000000E+00  3.75000000E-02
                       4.37500000E-02  0.00000000E+00  4.37500000E-02
                       5.00000000E-02  0.00000000E+00  5.00000000E-02
                       5.62500000E-02  0.00000000E+00  5.62500000E-02
                       6.25000000E-02  0.00000000E+00  6.25000000E-02
                       6.87500000E-02  0.00000000E+00  6.87500000E-02
                       7.50000000E-02  0.00000000E+00  7.50000000E-02
                       8.12500000E-02  0.00000000E+00  8.12500000E-02
                       8.75000000E-02  0.00000000E+00  8.75000000E-02
                       9.37500000E-02  0.00000000E+00  9.37500000E-02
                       1.00000000E-01  0.00000000E+00  1.00000000E-01
                       1.06250000E-01  0.00000000E+00  1.06250000E-01
                       1.12500000E-01  0.00000000E+00  1.12500000E-01
                       1.18750000E-01  0.00000000E+00  1.18750000E-01
                       1.25000000E-01  0.00000000E+00  1.25000000E-01
                       1.31250000E-01  0.00000000E+00  1.31250000E-01
                       1.37500000E-01  0.00000000E+00  1.37500000E-01
                       1.43750000E-01  0.00000000E+00  1.43750000E-01
                       1.50000000E-01  0.00000000E+00  1.50000000E-01
                       1.56250000E-01  0.00000000E+00  1.56250000E-01
                       1.62500000E-01  0.00000000E+00  1.62500000E-01
                       1.68750000E-01  0.00000000E+00  1.68750000E-01
                       1.75000000E-01  0.00000000E+00  1.75000000E-01
                       1.81250000E-01  0.00000000E+00  1.81250000E-01
                       1.87500000E-01  0.00000000E+00  1.87500000E-01
                       1.93750000E-01  0.00000000E+00  1.93750000E-01
                       2.00000000E-01  0.00000000E+00  2.00000000E-01
                       2.06250000E-01  0.00000000E+00  2.06250000E-01
                       2.12500000E-01  0.00000000E+00  2.12500000E-01
                       2.18750000E-01  0.00000000E+00  2.18750000E-01
                       2.25000000E-01  0.00000000E+00  2.25000000E-01
                       2.31250000E-01  0.00000000E+00  2.31250000E-01
                       2.37500000E-01  0.00000000E+00  2.37500000E-01
                       2.43750000E-01  0.00000000E+00  2.43750000E-01
                       2.50000000E-01  0.00000000E+00  2.50000000E-01
                       2.56250000E-01  0.00000000E+00  2.56250000E-01
                       2.62500000E-01  0.00000000E+00  2.62500000E-01
                       2.68750000E-01  0.00000000E+00  2.68750000E-01
                       2.75000000E-01  0.00000000E+00  2.75000000E-01
                       2.81250000E-01  0.00000000E+00  2.81250000E-01
                       2.87500000E-01  0.00000000E+00  2.87500000E-01
                       2.93750000E-01  0.00000000E+00  2.93750000E-01
                       3.00000000E-01  0.00000000E+00  3.00000000E-01
                       3.06250000E-01  0.00000000E+00  3.06250000E-01
                       outvar_i_n : Printing only first  50 k-points.
           kptopt1          1
           kptopt2         -6
         kptrlatt       12    0    0      0   12    0      0    0   12
          kptrlen1     6.65896818E+01
          kptrlen2     3.00000000E+01
P           mkmem1         91
P           mkmem2        241
            natom           2
           natsph2       2
            nband1         15
            nband2         15
           nbdbuf1          0
           nbdbuf2          2
           ndtset           2
            ngfft          27      27      27
          ngfftdg          30      30      30
             nkpt1        182
             nkpt2        481
-           npkpt           2
            nstep          50
             nsym          48
           ntypat           2
              occ      2.000000  2.000000  2.000000  2.000000  2.000000  2.000000
                       2.000000  2.000000  2.000000  2.000000  2.000000  2.000000
                       0.000000  0.000000  0.000000
        optforces           1
        pawecutdg      3.00000000E+01 Hartree
           prtdos1          0
           prtdos2          3
          prtdosm1          0
          prtdosm2          1
        prtebands1          1
        prtebands2          2
        prtprocar1          0
        prtprocar2          1
            rprim      0.0000000000E+00  1.6953764711E+00  1.6953764711E+00
                       1.6953764711E+00  0.0000000000E+00  1.6953764711E+00
                       1.6953764711E+00  1.6953764711E+00  0.0000000000E+00
           shiftk      5.00000000E-01  5.00000000E-01  5.00000000E-01
          spgroup         225
           strten1     4.8074918668E-04  4.8074918668E-04  4.8074918668E-04
                       0.0000000000E+00  0.0000000000E+00  0.0000000000E+00
           symrel      1  0  0   0  1  0   0  0  1      -1  0  0   0 -1  0   0  0 -1
                       0 -1  1   0 -1  0   1 -1  0       0  1 -1   0  1  0  -1  1  0
                      -1  0  0  -1  0  1  -1  1  0       1  0  0   1  0 -1   1 -1  0
                       0  1 -1   1  0 -1   0  0 -1       0 -1  1  -1  0  1   0  0  1
                      -1  0  0  -1  1  0  -1  0  1       1  0  0   1 -1  0   1  0 -1
                       0 -1  1   1 -1  0   0 -1  0       0  1 -1  -1  1  0   0  1  0
                       1  0  0   0  0  1   0  1  0      -1  0  0   0  0 -1   0 -1  0
                       0  1 -1   0  0 -1   1  0 -1       0 -1  1   0  0  1  -1  0  1
                      -1  0  1  -1  1  0  -1  0  0       1  0 -1   1 -1  0   1  0  0
                       0 -1  0   1 -1  0   0 -1  1       0  1  0  -1  1  0   0  1 -1
                       1  0 -1   0  0 -1   0  1 -1      -1  0  1   0  0  1   0 -1  1
                       0  1  0   0  0  1   1  0  0       0 -1  0   0  0 -1  -1  0  0
                       1  0 -1   0  1 -1   0  0 -1      -1  0  1   0 -1  1   0  0  1
                       0 -1  0   0 -1  1   1 -1  0       0  1  0   0  1 -1  -1  1  0
                      -1  0  1  -1  0  0  -1  1  0       1  0 -1   1  0  0   1 -1  0
                       0  1  0   1  0  0   0  0  1       0 -1  0  -1  0  0   0  0 -1
                       0  0 -1   0  1 -1   1  0 -1       0  0  1   0 -1  1  -1  0  1
                       1 -1  0   0 -1  1   0 -1  0      -1  1  0   0  1 -1   0  1  0
                       0  0  1   1  0  0   0  1  0       0  0 -1  -1  0  0   0 -1  0
                      -1  1  0  -1  0  0  -1  0  1       1 -1  0   1  0  0   1  0 -1
                       0  0  1   0  1  0   1  0  0       0  0 -1   0 -1  0  -1  0  0
                       1 -1  0   0 -1  0   0 -1  1      -1  1  0   0  1  0   0  1 -1
                       0  0 -1   1  0 -1   0  1 -1       0  0  1  -1  0  1   0 -1  1
                      -1  1  0  -1  0  1  -1  0  0       1 -1  0   1  0 -1   1  0  0
           toldfe1     1.00000000E-08 Hartree
           toldfe2     0.00000000E+00 Hartree
           tolwfr1     0.00000000E+00
           tolwfr2     1.00000000E-12
            typat      1  2
           useylm           1
              wtk1       0.00116    0.00347    0.00347    0.00347    0.00347    0.00347
                         0.00347    0.00347    0.00347    0.00347    0.00347    0.00347
                         0.00347    0.00694    0.00694    0.00694    0.00694    0.00694
                         0.00694    0.00694    0.00694    0.00694    0.00694    0.00347
                         0.00694    0.00694    0.00694    0.00694    0.00694    0.00694
                         0.00694    0.00694    0.00694    0.00347    0.00694    0.00694
                         0.00694    0.00694    0.00694    0.00694    0.00694    0.00694
                         0.00347    0.00694    0.00694    0.00694    0.00694    0.00694
                         0.00694    0.00694
              wtk2       1.00000    1.00000    1.00000    1.00000    1.00000    1.00000
                         1.00000    1.00000    1.00000    1.00000    1.00000    1.00000
                         1.00000    1.00000    1.00000    1.00000    1.00000    1.00000
                         1.00000    1.00000    1.00000    1.00000    1.00000    1.00000
                         1.00000    1.00000    1.00000    1.00000    1.00000    1.00000
                         1.00000    1.00000    1.00000    1.00000    1.00000    1.00000
                         1.00000    1.00000    1.00000    1.00000    1.00000    1.00000
                         1.00000    1.00000    1.00000    1.00000    1.00000    1.00000
                         1.00000    1.00000
                       outvars : Printing only first  50 k-points.
           xangst      0.0000000000E+00  0.0000000000E+00  0.0000000000E+00
                       2.0764038561E+00  2.0764038561E+00  2.0764038561E+00
            xcart      0.0000000000E+00  0.0000000000E+00  0.0000000000E+00
                       3.9238346293E+00  3.9238346293E+00  3.9238346293E+00
             xred      0.0000000000E+00  0.0000000000E+00  0.0000000000E+00
                       5.0000000000E-01  5.0000000000E-01  5.0000000000E-01
            znucl       28.00000    8.00000

================================================================================


- Timing analysis has been suppressed with timopt=0



================================================================================

 Suggested references for the acknowledgment of ABINIT usage.

 The users of ABINIT have little formal obligations with respect to the ABINIT group
 (those specified in the GNU General Public License, http://www.gnu.org/copyleft/gpl.txt).
 However, it is common practice in the scientific literature,
 to acknowledge the efforts of people that have made the research possible.
 In this spirit, please find below suggested citations of work written by ABINIT developers,
 corresponding to implementations inside of ABINIT that you have used in the present run.
 Note also that it will be of great value to readers of publications presenting these results,
 to read papers enabling them to understand the theoretical formalism and details
 of the ABINIT implementation.
 For information on why they are suggested, see also https://docs.abinit.org/theory/acknowledgments.
-
- [1] Implementation of the Projector Augmented-Wave Method in the ABINIT code.
- M. Torrent, F. Jollet, F. Bottin, G. Zerah, and X. Gonze Comput. Mat. Science 42, 337, (2008).
- Comment: PAW calculations. Strong suggestion to cite this paper.
- DOI and bibtex: see https://docs.abinit.org/theory/bibliography/#torrent2008
-
- [2] The Abinit project: Impact, environment and recent developments.
- Computer Phys. Comm. 248, 107042 (2020).
- X.Gonze, B. Amadon, G. Antonius, F.Arnardi, L.Baguet, J.-M.Beuken,
- J.Bieder, F.Bottin, J.Bouchet, E.Bousquet, N.Brouwer, F.Bruneval,
- G.Brunin, T.Cavignac, J.-B. Charraud, Wei Chen, M.Cote, S.Cottenier,
- J.Denier, G.Geneste, Ph.Ghosez, M.Giantomassi, Y.Gillet, O.Gingras,
- D.R.Hamann, G.Hautier, Xu He, N.Helbig, N.Holzwarth, Y.Jia, F.Jollet,
- W.Lafargue-Dit-Hauret, K.Lejaeghere, M.A.L.Marques, A.Martin, C.Martins,
- H.P.C. Miranda, F.Naccarato, K. Persson, G.Petretto, V.Planes, Y.Pouillon,
- S.Prokhorenko, F.Ricci, G.-M.Rignanese, A.H.Romero, M.M.Schmitt, M.Torrent,
- M.J.van Setten, B.Van Troeye, M.J.Verstraete, G.Zerah and J.W.Zwanzig
- Comment: the fifth generic paper describing the ABINIT project.
- Note that a version of this paper, that is not formatted for Computer Phys. Comm. 
- is available at https://www.abinit.org/sites/default/files/ABINIT20.pdf .
- The licence allows the authors to put it on the Web.
- DOI and bibtex: see https://docs.abinit.org/theory/bibliography/#gonze2020
-
- [3] ABINIT: Overview, and focus on selected capabilities
- J. Chem. Phys. 152, 124102 (2020).
- A. Romero, D.C. Allan, B. Amadon, G. Antonius, T. Applencourt, L.Baguet,
- J.Bieder, F.Bottin, J.Bouchet, E.Bousquet, F.Bruneval,
- G.Brunin, D.Caliste, M.Cote,
- J.Denier, C. Dreyer, Ph.Ghosez, M.Giantomassi, Y.Gillet, O.Gingras,
- D.R.Hamann, G.Hautier, F.Jollet, G. Jomard,
- A.Martin, 
- H.P.C. Miranda, F.Naccarato, G.Petretto, N.A. Pike, V.Planes,
- S.Prokhorenko, T. Rangel, F.Ricci, G.-M.Rignanese, M.Royo, M.Stengel, M.Torrent,
- M.J.van Setten, B.Van Troeye, M.J.Verstraete, J.Wiktor, J.W.Zwanziger, and X.Gonze.
- Comment: a global overview of ABINIT, with focus on selected capabilities .
- Note that a version of this paper, that is not formatted for J. Chem. Phys 
- is available at https://www.abinit.org/sites/default/files/ABINIT20_JPC.pdf .
- The licence allows the authors to put it on the Web.
- DOI and bibtex: see https://docs.abinit.org/theory/bibliography/#romero2020
-
- [4] Recent developments in the ABINIT software package.
- Computer Phys. Comm. 205, 106 (2016).
- X.Gonze, F.Jollet, F.Abreu Araujo, D.Adams, B.Amadon, T.Applencourt,
- C.Audouze, J.-M.Beuken, J.Bieder, A.Bokhanchuk, E.Bousquet, F.Bruneval
- D.Caliste, M.Cote, F.Dahm, F.Da Pieve, M.Delaveau, M.Di Gennaro,
- B.Dorado, C.Espejo, G.Geneste, L.Genovese, A.Gerossier, M.Giantomassi,
- Y.Gillet, D.R.Hamann, L.He, G.Jomard, J.Laflamme Janssen, S.Le Roux,
- A.Levitt, A.Lherbier, F.Liu, I.Lukacevic, A.Martin, C.Martins,
- M.J.T.Oliveira, S.Ponce, Y.Pouillon, T.Rangel, G.-M.Rignanese,
- A.H.Romero, B.Rousseau, O.Rubel, A.A.Shukri, M.Stankovski, M.Torrent,
- M.J.Van Setten, B.Van Troeye, M.J.Verstraete, D.Waroquier, J.Wiktor,
- B.Xu, A.Zhou, J.W.Zwanziger.
- Comment: the fourth generic paper describing the ABINIT project.
- Note that a version of this paper, that is not formatted for Computer Phys. Comm. 
- is available at https://www.abinit.org/sites/default/files/ABINIT16.pdf .
- The licence allows the authors to put it on the Web.
- DOI and bibtex: see https://docs.abinit.org/theory/bibliography/#gonze2016
-
- And optionally:
-
- [5] ABINIT: First-principles approach of materials and nanosystem properties.
- Computer Phys. Comm. 180, 2582-2615 (2009).
- X. Gonze, B. Amadon, P.-M. Anglade, J.-M. Beuken, F. Bottin, P. Boulanger, F. Bruneval,
- D. Caliste, R. Caracas, M. Cote, T. Deutsch, L. Genovese, Ph. Ghosez, M. Giantomassi
- S. Goedecker, D.R. Hamann, P. Hermet, F. Jollet, G. Jomard, S. Leroux, M. Mancini, S. Mazevet,
- M.J.T. Oliveira, G. Onida, Y. Pouillon, T. Rangel, G.-M. Rignanese, D. Sangalli, R. Shaltaf,
- M. Torrent, M.J. Verstraete, G. Zerah, J.W. Zwanziger
- Comment: the third generic paper describing the ABINIT project.
- Note that a version of this paper, that is not formatted for Computer Phys. Comm. 
- is available at https://www.abinit.org/sites/default/files/ABINIT_CPC_v10.pdf .
- The licence allows the authors to put it on the Web.
- DOI and bibtex: see https://docs.abinit.org/theory/bibliography/#gonze2009
-
- Proc.   0 individual time (sec): cpu=        698.5  wall=        739.6

================================================================================

 Calculation completed.
.Delivered   0 WARNINGs and   0 COMMENTs to log file.
+Overall time at end (sec) : cpu=       1394.4  wall=       1479.0
