PROCAR lm decomposed - need to merge files yourself in parallel case!!! Or use pyprocar package
# of k-points:        481 # of bands:        15 # of ions:         2

 k-point       1 :     0.000000    0.000000    0.000000 weight =     1.000000

band       1 # energy    -3.418895 # occ.     2.000000

ion       s      py     pz     px    dxy    dyz    dz2    dxz    dx2    tot
     1  0.538  0.000  0.000  0.000  0.000  0.000  0.000  0.000  0.000  0.538
     2  0.000  0.000  0.000  0.000  0.000  0.000  0.000  0.000  0.000  0.000
tot     0.538  0.000  0.000  0.000  0.000  0.000  0.000  0.000  0.000  0.538
band       2 # energy    -1.979294 # occ.     2.000000

ion       s      py     pz     px    dxy    dyz    dz2    dxz    dx2    tot
     1  0.000  0.284  0.027  0.284  0.000  0.000  0.000  0.000  0.000  0.595
     2  0.000  0.000  0.000  0.000  0.000  0.000  0.000  0.000  0.000  0.000
tot     0.000  0.284  0.027  0.284  0.000  0.000  0.000  0.000  0.000  0.595
band       3 # energy    -1.979294 # occ.     2.000000

ion       s      py     pz     px    dxy    dyz    dz2    dxz    dx2    tot
     1  0.000  0.198  0.199  0.198  0.000  0.000  0.000  0.000  0.000  0.595
     2  0.000  0.000  0.000  0.000  0.000  0.000  0.000  0.000  0.000  0.000
tot     0.000  0.198  0.199  0.198  0.000  0.000  0.000  0.000  0.000  0.595
band       4 # energy    -1.979294 # occ.     2.000000

ion       s      py     pz     px    dxy    dyz    dz2    dxz    dx2    tot
     1  0.000  0.113  0.369  0.113  0.000  0.000  0.000  0.000  0.000  0.595
     2  0.000  0.000  0.000  0.000  0.000  0.000  0.000  0.000  0.000  0.000
tot     0.000  0.113  0.369  0.113  0.000  0.000  0.000  0.000  0.000  0.595
band       5 # energy    -0.403890 # occ.     2.000000

ion       s      py     pz     px    dxy    dyz    dz2    dxz    dx2    tot
     1  0.031  0.000  0.000  0.000  0.000  0.000  0.000  0.000  0.000  0.031
     2  0.662  0.000  0.000  0.000  0.000  0.000  0.000  0.000  0.000  0.662
tot     0.693  0.000  0.000  0.000  0.000  0.000  0.000  0.000  0.000  0.694
band       6 # energy     0.228122 # occ.     2.000000

ion       s      py     pz     px    dxy    dyz    dz2    dxz    dx2    tot
     1  0.000  0.004  0.000  0.004  0.000  0.000  0.000  0.000  0.000  0.014
     2  0.000  0.245  0.028  0.245  0.000  0.000  0.000  0.000  0.000  0.517
tot     0.000  0.249  0.028  0.249  0.000  0.000  0.000  0.000  0.000  0.531
band       7 # energy     0.228122 # occ.     2.000000

ion       s      py     pz     px    dxy    dyz    dz2    dxz    dx2    tot
     1  0.000  0.003  0.003  0.003  0.000  0.000  0.000  0.000  0.000  0.014
     2  0.000  0.166  0.184  0.166  0.000  0.000  0.000  0.000  0.000  0.517
tot     0.000  0.169  0.187  0.169  0.000  0.000  0.000  0.000  0.000  0.531
band       8 # energy     0.228122 # occ.     2.000000

ion       s      py     pz     px    dxy    dyz    dz2    dxz    dx2    tot
     1  0.000  0.002  0.005  0.002  0.000  0.000  0.000  0.000  0.000  0.014
     2  0.000  0.106  0.305  0.106  0.000  0.000  0.000  0.000  0.000  0.517
tot     0.000  0.108  0.310  0.108  0.000  0.000  0.000  0.000  0.000  0.531
band       9 # energy     0.271009 # occ.     2.000000

ion       s      py     pz     px    dxy    dyz    dz2    dxz    dx2    tot
     1  0.000  0.000  0.000  0.000  0.115  0.095  0.000  0.095  0.115  0.421
     2  0.000  0.000  0.000  0.000  0.001  0.001  0.000  0.001  0.001  0.002
tot     0.000  0.000  0.000  0.000  0.116  0.095  0.000  0.095  0.116  0.423
band      10 # energy     0.271009 # occ.     2.000000

ion       s      py     pz     px    dxy    dyz    dz2    dxz    dx2    tot
     1  0.000  0.000  0.000  0.000  0.081  0.130  0.000  0.130  0.081  0.421
     2  0.000  0.000  0.000  0.000  0.000  0.001  0.000  0.001  0.000  0.002
tot     0.000  0.000  0.000  0.000  0.081  0.130  0.000  0.130  0.081  0.423
band      11 # energy     0.271009 # occ.     2.000000

ion       s      py     pz     px    dxy    dyz    dz2    dxz    dx2    tot
     1  0.000  0.000  0.000  0.000  0.014  0.196  0.000  0.196  0.014  0.421
     2  0.000  0.000  0.000  0.000  0.000  0.001  0.000  0.001  0.000  0.002
tot     0.000  0.000  0.000  0.000  0.014  0.197  0.000  0.197  0.014  0.423
band      12 # energy     0.277885 # occ.     2.000000

ion       s      py     pz     px    dxy    dyz    dz2    dxz    dx2    tot
     1  0.000  0.000  0.000  0.000  0.202  0.000  0.028  0.000  0.202  0.432
     2  0.000  0.000  0.000  0.000  0.002  0.000  0.000  0.000  0.002  0.004
tot     0.000  0.000  0.000  0.000  0.204  0.000  0.029  0.000  0.204  0.436
band      13 # energy     0.277885 # occ.     0.000000

ion       s      py     pz     px    dxy    dyz    dz2    dxz    dx2    tot
     1  0.000  0.000  0.000  0.000  0.014  0.000  0.403  0.000  0.014  0.432
     2  0.000  0.000  0.000  0.000  0.000  0.000  0.004  0.000  0.000  0.004
tot     0.000  0.000  0.000  0.000  0.014  0.000  0.407  0.000  0.014  0.436
band      14 # energy     0.405228 # occ.     0.000000

ion       s      py     pz     px    dxy    dyz    dz2    dxz    dx2    tot
     1  0.165  0.000  0.000  0.000  0.000  0.000  0.000  0.000  0.000  0.166
     2  0.321  0.000  0.000  0.000  0.000  0.000  0.000  0.000  0.000  0.321
tot     0.485  0.000  0.000  0.000  0.000  0.000  0.000  0.000  0.000  0.486
band      15 # energy     0.993367 # occ.     0.000000

ion       s      py     pz     px    dxy    dyz    dz2    dxz    dx2    tot
     1  0.000  0.000  0.000  0.000  0.000  0.000  0.000  0.000  0.000  0.045
     2  0.000  0.000  0.000  0.000  0.000  0.000  0.000  0.000  0.000  0.005
tot     0.000  0.000  0.000  0.000  0.000  0.000  0.000  0.000  0.000  0.050
 k-point       2 :     0.006250    0.000000    0.006250 weight =     1.000000

band       1 # energy    -3.418894 # occ.     2.000000

ion       s      py     pz     px    dxy    dyz    dz2    dxz    dx2    tot
     1  0.538  0.000  0.000  0.000  0.000  0.000  0.000  0.000  0.000  0.538
     2  0.000  0.000  0.000  0.000  0.000  0.000  0.000  0.000  0.000  0.000
tot     0.538  0.000  0.000  0.000  0.000  0.000  0.000  0.000  0.000  0.538
band       2 # energy    -1.979295 # occ.     2.000000

ion       s      py     pz     px    dxy    dyz    dz2    dxz    dx2    tot
     1  0.000  0.298  0.000  0.298  0.000  0.000  0.000  0.000  0.000  0.595
     2  0.000  0.000  0.000  0.000  0.000  0.000  0.000  0.000  0.000  0.000
tot     0.000  0.298  0.000  0.298  0.000  0.000  0.000  0.000  0.000  0.595
band       3 # energy    -1.979294 # occ.     2.000000

ion       s      py     pz     px    dxy    dyz    dz2    dxz    dx2    tot
     1  0.000  0.298  0.000  0.298  0.000  0.000  0.000  0.000  0.000  0.595
     2  0.000  0.000  0.000  0.000  0.000  0.000  0.000  0.000  0.000  0.000
tot     0.000  0.298  0.000  0.298  0.000  0.000  0.000  0.000  0.000  0.595
band       4 # energy    -1.979294 # occ.     2.000000

ion       s      py     pz     px    dxy    dyz    dz2    dxz    dx2    tot
     1  0.000  0.000  0.595  0.000  0.000  0.000  0.000  0.000  0.000  0.595
     2  0.000  0.000  0.000  0.000  0.000  0.000  0.000  0.000  0.000  0.000
tot     0.000  0.000  0.595  0.000  0.000  0.000  0.000  0.000  0.000  0.595
band       5 # energy    -0.403866 # occ.     2.000000

ion       s      py     pz     px    dxy    dyz    dz2    dxz    dx2    tot
     1  0.031  0.000  0.000  0.000  0.000  0.000  0.000  0.000  0.000  0.031
     2  0.662  0.000  0.000  0.000  0.000  0.000  0.000  0.000  0.000  0.662
tot     0.693  0.000  0.000  0.000  0.000  0.000  0.000  0.000  0.000  0.694
band       6 # energy     0.227759 # occ.     2.000000

ion       s      py     pz     px    dxy    dyz    dz2    dxz    dx2    tot
     1  0.000  0.004  0.000  0.004  0.001  0.000  0.001  0.000  0.001  0.017
     2  0.000  0.257  0.000  0.257  0.000  0.000  0.000  0.000  0.000  0.514
tot     0.000  0.261  0.000  0.261  0.001  0.000  0.001  0.000  0.001  0.530
band       7 # energy     0.228046 # occ.     2.000000

ion       s      py     pz     px    dxy    dyz    dz2    dxz    dx2    tot
     1  0.000  0.004  0.000  0.004  0.000  0.000  0.000  0.000  0.000  0.015
     2  0.000  0.258  0.000  0.258  0.000  0.000  0.000  0.000  0.000  0.516
tot     0.000  0.262  0.000  0.262  0.000  0.000  0.000  0.000  0.000  0.531
band       8 # energy     0.228046 # occ.     2.000000

ion       s      py     pz     px    dxy    dyz    dz2    dxz    dx2    tot
     1  0.000  0.000  0.009  0.000  0.000  0.000  0.000  0.000  0.000  0.015
     2  0.000  0.000  0.516  0.000  0.000  0.000  0.000  0.000  0.000  0.516
tot     0.000  0.000  0.525  0.000  0.000  0.000  0.000  0.000  0.000  0.531
band       9 # energy     0.270994 # occ.     2.000000

ion       s      py     pz     px    dxy    dyz    dz2    dxz    dx2    tot
     1  0.000  0.000  0.000  0.000  0.000  0.210  0.000  0.210  0.000  0.421
     2  0.000  0.000  0.000  0.000  0.000  0.001  0.000  0.001  0.000  0.002
tot     0.000  0.000  0.000  0.000  0.000  0.211  0.000  0.211  0.000  0.423
band      10 # energy     0.271090 # occ.     2.000000

ion       s      py     pz     px    dxy    dyz    dz2    dxz    dx2    tot
     1  0.000  0.000  0.000  0.000  0.210  0.000  0.000  0.000  0.210  0.420
     2  0.000  0.000  0.000  0.000  0.001  0.000  0.000  0.000  0.001  0.003
tot     0.000  0.000  0.000  0.000  0.211  0.000  0.000  0.000  0.211  0.423
band      11 # energy     0.271090 # occ.     2.000000

ion       s      py     pz     px    dxy    dyz    dz2    dxz    dx2    tot
     1  0.000  0.000  0.000  0.000  0.000  0.210  0.000  0.210  0.000  0.420
     2  0.000  0.000  0.001  0.000  0.000  0.001  0.000  0.001  0.000  0.003
tot     0.000  0.000  0.001  0.000  0.000  0.211  0.000  0.211  0.000  0.423
band      12 # energy     0.277891 # occ.     2.000000

ion       s      py     pz     px    dxy    dyz    dz2    dxz    dx2    tot
     1  0.000  0.000  0.000  0.000  0.054  0.000  0.324  0.000  0.054  0.432
     2  0.000  0.000  0.000  0.000  0.001  0.000  0.003  0.000  0.001  0.004
tot     0.000  0.000  0.000  0.000  0.054  0.000  0.327  0.000  0.054  0.436
band      13 # energy     0.278155 # occ.     0.000000

ion       s      py     pz     px    dxy    dyz    dz2    dxz    dx2    tot
     1  0.000  0.000  0.000  0.000  0.161  0.000  0.107  0.000  0.161  0.429
     2  0.000  0.001  0.000  0.001  0.002  0.000  0.001  0.000  0.002  0.007
tot     0.000  0.001  0.000  0.001  0.163  0.000  0.108  0.000  0.163  0.436
band      14 # energy     0.405375 # occ.     0.000000

ion       s      py     pz     px    dxy    dyz    dz2    dxz    dx2    tot
     1  0.165  0.000  0.000  0.000  0.000  0.000  0.000  0.000  0.000  0.166
     2  0.320  0.000  0.000  0.000  0.000  0.000  0.000  0.000  0.000  0.321
tot     0.485  0.000  0.000  0.000  0.000  0.000  0.000  0.000  0.000  0.487
band      15 # energy     0.992594 # occ.     0.000000

ion       s      py     pz     px    dxy    dyz    dz2    dxz    dx2    tot
     1  0.000  0.000  0.000  0.000  0.000  0.001  0.000  0.001  0.000  0.045
     2  0.000  0.000  0.000  0.000  0.000  0.000  0.000  0.000  0.000  0.006
tot     0.000  0.000  0.000  0.000  0.000  0.001  0.000  0.001  0.000  0.051
 k-point       3 :     0.012500    0.000000    0.012500 weight =     1.000000

band       1 # energy    -3.418894 # occ.     2.000000

ion       s      py     pz     px    dxy    dyz    dz2    dxz    dx2    tot
     1  0.538  0.000  0.000  0.000  0.000  0.000  0.000  0.000  0.000  0.538
     2  0.000  0.000  0.000  0.000  0.000  0.000  0.000  0.000  0.000  0.000
tot     0.538  0.000  0.000  0.000  0.000  0.000  0.000  0.000  0.000  0.538
band       2 # energy    -1.979296 # occ.     2.000000

ion       s      py     pz     px    dxy    dyz    dz2    dxz    dx2    tot
     1  0.000  0.298  0.000  0.298  0.000  0.000  0.000  0.000  0.000  0.595
     2  0.000  0.000  0.000  0.000  0.000  0.000  0.000  0.000  0.000  0.000
tot     0.000  0.298  0.000  0.298  0.000  0.000  0.000  0.000  0.000  0.595
band       3 # energy    -1.979295 # occ.     2.000000

ion       s      py     pz     px    dxy    dyz    dz2    dxz    dx2    tot
     1  0.000  0.298  0.000  0.298  0.000  0.000  0.000  0.000  0.000  0.595
     2  0.000  0.000  0.000  0.000  0.000  0.000  0.000  0.000  0.000  0.000
tot     0.000  0.298  0.000  0.298  0.000  0.000  0.000  0.000  0.000  0.595
band       4 # energy    -1.979295 # occ.     2.000000

ion       s      py     pz     px    dxy    dyz    dz2    dxz    dx2    tot
     1  0.000  0.000  0.595  0.000  0.000  0.000  0.000  0.000  0.000  0.595
     2  0.000  0.000  0.000  0.000  0.000  0.000  0.000  0.000  0.000  0.000
tot     0.000  0.000  0.595  0.000  0.000  0.000  0.000  0.000  0.000  0.595
band       5 # energy    -0.403795 # occ.     2.000000

ion       s      py     pz     px    dxy    dyz    dz2    dxz    dx2    tot
     1  0.031  0.000  0.000  0.000  0.000  0.000  0.000  0.000  0.000  0.031
     2  0.662  0.000  0.000  0.000  0.000  0.000  0.000  0.000  0.000  0.662
tot     0.693  0.000  0.000  0.000  0.000  0.000  0.000  0.000  0.000  0.694
band       6 # energy     0.226694 # occ.     2.000000

ion       s      py     pz     px    dxy    dyz    dz2    dxz    dx2    tot
     1  0.001  0.004  0.000  0.004  0.003  0.000  0.002  0.000  0.003  0.023
     2  0.001  0.252  0.000  0.252  0.000  0.000  0.000  0.000  0.000  0.506
tot     0.002  0.257  0.000  0.257  0.003  0.000  0.002  0.000  0.003  0.529
band       7 # energy     0.227822 # occ.     2.000000

ion       s      py     pz     px    dxy    dyz    dz2    dxz    dx2    tot
     1  0.000  0.004  0.000  0.004  0.001  0.000  0.000  0.000  0.001  0.017
     2  0.000  0.257  0.000  0.257  0.000  0.000  0.000  0.000  0.000  0.514
tot     0.000  0.261  0.000  0.261  0.001  0.000  0.000  0.000  0.001  0.530
band       8 # energy     0.227822 # occ.     2.000000

ion       s      py     pz     px    dxy    dyz    dz2    dxz    dx2    tot
     1  0.000  0.000  0.009  0.000  0.000  0.001  0.000  0.001  0.000  0.017
     2  0.000  0.000  0.514  0.000  0.000  0.000  0.000  0.000  0.000  0.514
tot     0.000  0.000  0.522  0.000  0.000  0.001  0.000  0.001  0.000  0.530
band       9 # energy     0.270948 # occ.     2.000000

ion       s      py     pz     px    dxy    dyz    dz2    dxz    dx2    tot
     1  0.000  0.000  0.000  0.000  0.000  0.210  0.000  0.210  0.000  0.421
     2  0.000  0.000  0.000  0.000  0.000  0.001  0.000  0.001  0.000  0.002
tot     0.000  0.000  0.000  0.000  0.000  0.211  0.000  0.211  0.000  0.423
band      10 # energy     0.271331 # occ.     2.000000

ion       s      py     pz     px    dxy    dyz    dz2    dxz    dx2    tot
     1  0.000  0.000  0.000  0.000  0.209  0.000  0.000  0.000  0.209  0.418
     2  0.000  0.002  0.000  0.002  0.001  0.000  0.000  0.000  0.001  0.005
tot     0.000  0.002  0.000  0.002  0.210  0.000  0.000  0.000  0.210  0.424
band      11 # energy     0.271331 # occ.     2.000000

ion       s      py     pz     px    dxy    dyz    dz2    dxz    dx2    tot
     1  0.000  0.000  0.000  0.000  0.000  0.209  0.000  0.209  0.000  0.418
     2  0.000  0.000  0.003  0.000  0.000  0.001  0.000  0.001  0.000  0.005
tot     0.000  0.000  0.003  0.000  0.000  0.210  0.000  0.210  0.000  0.424
band      12 # energy     0.277908 # occ.     2.000000

ion       s      py     pz     px    dxy    dyz    dz2    dxz    dx2    tot
     1  0.000  0.000  0.000  0.000  0.054  0.000  0.324  0.000  0.054  0.432
     2  0.000  0.000  0.000  0.000  0.001  0.000  0.003  0.000  0.001  0.004
tot     0.000  0.000  0.000  0.000  0.054  0.000  0.327  0.000  0.054  0.436
band      13 # energy     0.278940 # occ.     0.000000

ion       s      py     pz     px    dxy    dyz    dz2    dxz    dx2    tot
     1  0.000  0.000  0.000  0.000  0.159  0.000  0.106  0.000  0.159  0.423
     2  0.000  0.005  0.000  0.005  0.002  0.000  0.001  0.000  0.002  0.015
tot     0.000  0.005  0.000  0.005  0.160  0.000  0.107  0.000  0.160  0.438
band      14 # energy     0.405816 # occ.     0.000000

ion       s      py     pz     px    dxy    dyz    dz2    dxz    dx2    tot
     1  0.164  0.000  0.000  0.000  0.000  0.000  0.000  0.000  0.000  0.165
     2  0.320  0.001  0.000  0.001  0.000  0.000  0.000  0.000  0.000  0.321
tot     0.484  0.001  0.000  0.001  0.000  0.000  0.000  0.000  0.000  0.487
band      15 # energy     0.990427 # occ.     0.000000

ion       s      py     pz     px    dxy    dyz    dz2    dxz    dx2    tot
     1  0.000  0.000  0.000  0.000  0.000  0.002  0.000  0.002  0.000  0.046
     2  0.000  0.000  0.000  0.000  0.000  0.001  0.000  0.001  0.000  0.008
tot     0.000  0.000  0.000  0.000  0.000  0.003  0.000  0.003  0.000  0.054
 k-point       4 :     0.018750    0.000000    0.018750 weight =     1.000000

band       1 # energy    -3.418894 # occ.     2.000000

ion       s      py     pz     px    dxy    dyz    dz2    dxz    dx2    tot
     1  0.538  0.000  0.000  0.000  0.000  0.000  0.000  0.000  0.000  0.538
     2  0.000  0.000  0.000  0.000  0.000  0.000  0.000  0.000  0.000  0.000
tot     0.538  0.000  0.000  0.000  0.000  0.000  0.000  0.000  0.000  0.538
band       2 # energy    -1.979299 # occ.     2.000000

ion       s      py     pz     px    dxy    dyz    dz2    dxz    dx2    tot
     1  0.000  0.298  0.000  0.298  0.000  0.000  0.000  0.000  0.000  0.595
     2  0.000  0.000  0.000  0.000  0.000  0.000  0.000  0.000  0.000  0.000
tot     0.000  0.298  0.000  0.298  0.000  0.000  0.000  0.000  0.000  0.595
band       3 # energy    -1.979296 # occ.     2.000000

ion       s      py     pz     px    dxy    dyz    dz2    dxz    dx2    tot
     1  0.000  0.298  0.000  0.298  0.000  0.000  0.000  0.000  0.000  0.595
     2  0.000  0.000  0.000  0.000  0.000  0.000  0.000  0.000  0.000  0.000
tot     0.000  0.298  0.000  0.298  0.000  0.000  0.000  0.000  0.000  0.595
band       4 # energy    -1.979296 # occ.     2.000000

ion       s      py     pz     px    dxy    dyz    dz2    dxz    dx2    tot
     1  0.000  0.000  0.595  0.000  0.000  0.000  0.000  0.000  0.000  0.595
     2  0.000  0.000  0.000  0.000  0.000  0.000  0.000  0.000  0.000  0.000
tot     0.000  0.000  0.595  0.000  0.000  0.000  0.000  0.000  0.000  0.595
band       5 # energy    -0.403678 # occ.     2.000000

ion       s      py     pz     px    dxy    dyz    dz2    dxz    dx2    tot
     1  0.031  0.000  0.000  0.000  0.000  0.000  0.000  0.000  0.000  0.031
     2  0.663  0.000  0.000  0.000  0.000  0.000  0.000  0.000  0.000  0.663
tot     0.693  0.000  0.000  0.000  0.000  0.000  0.000  0.000  0.000  0.694
band       6 # energy     0.225000 # occ.     2.000000

ion       s      py     pz     px    dxy    dyz    dz2    dxz    dx2    tot
     1  0.001  0.004  0.000  0.004  0.007  0.000  0.004  0.000  0.007  0.032
     2  0.002  0.246  0.000  0.246  0.000  0.000  0.000  0.000  0.000  0.494
tot     0.003  0.250  0.000  0.250  0.007  0.000  0.004  0.000  0.007  0.526
band       7 # energy     0.227453 # occ.     2.000000

ion       s      py     pz     px    dxy    dyz    dz2    dxz    dx2    tot
     1  0.000  0.004  0.000  0.004  0.003  0.000  0.000  0.000  0.003  0.019
     2  0.000  0.255  0.000  0.255  0.000  0.000  0.000  0.000  0.000  0.510
tot     0.000  0.259  0.000  0.259  0.003  0.000  0.000  0.000  0.003  0.529
band       8 # energy     0.227453 # occ.     2.000000

ion       s      py     pz     px    dxy    dyz    dz2    dxz    dx2    tot
     1  0.000  0.000  0.009  0.000  0.000  0.003  0.000  0.003  0.000  0.019
     2  0.000  0.000  0.510  0.000  0.000  0.000  0.000  0.000  0.000  0.510
tot     0.000  0.000  0.518  0.000  0.000  0.003  0.000  0.003  0.000  0.529
band       9 # energy     0.270872 # occ.     2.000000

ion       s      py     pz     px    dxy    dyz    dz2    dxz    dx2    tot
     1  0.000  0.000  0.000  0.000  0.000  0.210  0.000  0.210  0.000  0.421
     2  0.000  0.000  0.000  0.000  0.000  0.001  0.000  0.001  0.000  0.002
tot     0.000  0.000  0.000  0.000  0.000  0.211  0.000  0.211  0.000  0.423
band      10 # energy     0.271727 # occ.     2.000000

ion       s      py     pz     px    dxy    dyz    dz2    dxz    dx2    tot
     1  0.000  0.000  0.000  0.000  0.208  0.000  0.000  0.000  0.208  0.416
     2  0.000  0.003  0.000  0.003  0.001  0.000  0.000  0.000  0.001  0.009
tot     0.000  0.003  0.000  0.003  0.209  0.000  0.000  0.000  0.209  0.425
band      11 # energy     0.271727 # occ.     2.000000

ion       s      py     pz     px    dxy    dyz    dz2    dxz    dx2    tot
     1  0.000  0.000  0.000  0.000  0.000  0.208  0.000  0.208  0.000  0.416
     2  0.000  0.000  0.007  0.000  0.000  0.001  0.000  0.001  0.000  0.009
tot     0.000  0.000  0.007  0.000  0.000  0.209  0.000  0.209  0.000  0.425
band      12 # energy     0.277936 # occ.     2.000000

ion       s      py     pz     px    dxy    dyz    dz2    dxz    dx2    tot
     1  0.000  0.000  0.000  0.000  0.054  0.000  0.324  0.000  0.054  0.432
     2  0.000  0.000  0.000  0.000  0.001  0.000  0.003  0.000  0.001  0.004
tot     0.000  0.000  0.000  0.000  0.054  0.000  0.327  0.000  0.054  0.436
band      13 # energy     0.280170 # occ.     0.000000

ion       s      py     pz     px    dxy    dyz    dz2    dxz    dx2    tot
     1  0.000  0.000  0.000  0.000  0.155  0.000  0.103  0.000  0.155  0.415
     2  0.000  0.010  0.000  0.010  0.002  0.000  0.001  0.000  0.002  0.025
tot     0.000  0.011  0.000  0.011  0.157  0.000  0.105  0.000  0.157  0.440
band      14 # energy     0.406549 # occ.     0.000000

ion       s      py     pz     px    dxy    dyz    dz2    dxz    dx2    tot
     1  0.163  0.000  0.000  0.000  0.000  0.000  0.000  0.000  0.000  0.165
     2  0.318  0.002  0.000  0.002  0.000  0.000  0.000  0.000  0.000  0.322
tot     0.481  0.002  0.000  0.002  0.000  0.000  0.000  0.000  0.000  0.487
band      15 # energy     0.987207 # occ.     0.000000

ion       s      py     pz     px    dxy    dyz    dz2    dxz    dx2    tot
     1  0.000  0.000  0.000  0.000  0.000  0.003  0.000  0.003  0.000  0.046
     2  0.000  0.000  0.000  0.000  0.000  0.003  0.000  0.003  0.000  0.010
tot     0.000  0.000  0.000  0.000  0.000  0.006  0.000  0.006  0.000  0.056
 k-point       5 :     0.025000    0.000000    0.025000 weight =     1.000000

band       1 # energy    -3.418894 # occ.     2.000000

ion       s      py     pz     px    dxy    dyz    dz2    dxz    dx2    tot
     1  0.538  0.000  0.000  0.000  0.000  0.000  0.000  0.000  0.000  0.538
     2  0.000  0.000  0.000  0.000  0.000  0.000  0.000  0.000  0.000  0.000
tot     0.538  0.000  0.000  0.000  0.000  0.000  0.000  0.000  0.000  0.538
band       2 # energy    -1.979303 # occ.     2.000000

ion       s      py     pz     px    dxy    dyz    dz2    dxz    dx2    tot
     1  0.000  0.298  0.000  0.298  0.000  0.000  0.000  0.000  0.000  0.595
     2  0.000  0.000  0.000  0.000  0.000  0.000  0.000  0.000  0.000  0.000
tot     0.000  0.298  0.000  0.298  0.000  0.000  0.000  0.000  0.000  0.595
band       3 # energy    -1.979297 # occ.     2.000000

ion       s      py     pz     px    dxy    dyz    dz2    dxz    dx2    tot
     1  0.000  0.298  0.000  0.298  0.000  0.000  0.000  0.000  0.000  0.595
     2  0.000  0.000  0.000  0.000  0.000  0.000  0.000  0.000  0.000  0.000
tot     0.000  0.298  0.000  0.298  0.000  0.000  0.000  0.000  0.000  0.595
band       4 # energy    -1.979297 # occ.     2.000000

ion       s      py     pz     px    dxy    dyz    dz2    dxz    dx2    tot
     1  0.000  0.000  0.595  0.000  0.000  0.000  0.000  0.000  0.000  0.595
     2  0.000  0.000  0.000  0.000  0.000  0.000  0.000  0.000  0.000  0.000
tot     0.000  0.000  0.595  0.000  0.000  0.000  0.000  0.000  0.000  0.595
band       5 # energy    -0.403513 # occ.     2.000000

ion       s      py     pz     px    dxy    dyz    dz2    dxz    dx2    tot
     1  0.031  0.000  0.000  0.000  0.000  0.000  0.000  0.000  0.000  0.031
     2  0.663  0.000  0.000  0.000  0.000  0.000  0.000  0.000  0.000  0.663
tot     0.694  0.000  0.000  0.000  0.000  0.000  0.000  0.000  0.000  0.694
band       6 # energy     0.222770 # occ.     2.000000

ion       s      py     pz     px    dxy    dyz    dz2    dxz    dx2    tot
     1  0.002  0.004  0.000  0.004  0.010  0.000  0.007  0.000  0.010  0.042
     2  0.003  0.239  0.000  0.239  0.000  0.000  0.000  0.000  0.000  0.481
tot     0.005  0.242  0.000  0.242  0.011  0.000  0.007  0.000  0.011  0.523
band       7 # energy     0.226950 # occ.     2.000000

ion       s      py     pz     px    dxy    dyz    dz2    dxz    dx2    tot
     1  0.000  0.004  0.000  0.004  0.004  0.000  0.000  0.000  0.004  0.023
     2  0.000  0.253  0.000  0.253  0.000  0.000  0.000  0.000  0.000  0.505
tot     0.000  0.257  0.000  0.257  0.004  0.000  0.000  0.000  0.004  0.528
band       8 # energy     0.226950 # occ.     2.000000

ion       s      py     pz     px    dxy    dyz    dz2    dxz    dx2    tot
     1  0.000  0.000  0.009  0.000  0.000  0.004  0.000  0.004  0.000  0.023
     2  0.000  0.000  0.505  0.000  0.000  0.000  0.000  0.000  0.000  0.505
tot     0.000  0.000  0.514  0.000  0.000  0.004  0.000  0.004  0.000  0.528
band       9 # energy     0.270765 # occ.     2.000000

ion       s      py     pz     px    dxy    dyz    dz2    dxz    dx2    tot
     1  0.000  0.000  0.000  0.000  0.000  0.210  0.000  0.210  0.000  0.420
     2  0.000  0.000  0.000  0.000  0.000  0.001  0.000  0.001  0.000  0.002
tot     0.000  0.000  0.000  0.000  0.000  0.211  0.000  0.211  0.000  0.423
band      10 # energy     0.272267 # occ.     2.000000

ion       s      py     pz     px    dxy    dyz    dz2    dxz    dx2    tot
     1  0.000  0.000  0.000  0.000  0.206  0.000  0.000  0.000  0.206  0.413
     2  0.000  0.006  0.000  0.006  0.001  0.000  0.000  0.000  0.001  0.014
tot     0.000  0.006  0.000  0.006  0.207  0.000  0.000  0.000  0.207  0.426
band      11 # energy     0.272267 # occ.     2.000000

ion       s      py     pz     px    dxy    dyz    dz2    dxz    dx2    tot
     1  0.000  0.000  0.000  0.000  0.000  0.206  0.000  0.206  0.000  0.413
     2  0.000  0.000  0.011  0.000  0.000  0.001  0.000  0.001  0.000  0.014
tot     0.000  0.000  0.012  0.000  0.000  0.207  0.000  0.207  0.000  0.426
band      12 # energy     0.277976 # occ.     2.000000

ion       s      py     pz     px    dxy    dyz    dz2    dxz    dx2    tot
     1  0.000  0.000  0.000  0.000  0.054  0.000  0.324  0.000  0.054  0.432
     2  0.000  0.000  0.000  0.000  0.001  0.000  0.003  0.000  0.001  0.004
tot     0.000  0.000  0.000  0.000  0.054  0.000  0.327  0.000  0.054  0.436
band      13 # energy     0.281752 # occ.     0.000000

ion       s      py     pz     px    dxy    dyz    dz2    dxz    dx2    tot
     1  0.000  0.000  0.000  0.000  0.151  0.000  0.101  0.000  0.151  0.405
     2  0.001  0.016  0.000  0.016  0.002  0.000  0.001  0.000  0.002  0.037
tot     0.001  0.017  0.000  0.017  0.153  0.000  0.102  0.000  0.153  0.442
band      14 # energy     0.407573 # occ.     0.000000

ion       s      py     pz     px    dxy    dyz    dz2    dxz    dx2    tot
     1  0.162  0.000  0.000  0.000  0.000  0.000  0.000  0.000  0.000  0.164
     2  0.316  0.004  0.000  0.004  0.000  0.000  0.000  0.000  0.000  0.323
tot     0.478  0.004  0.000  0.004  0.000  0.000  0.000  0.000  0.000  0.487
band      15 # energy     0.983281 # occ.     0.000000

ion       s      py     pz     px    dxy    dyz    dz2    dxz    dx2    tot
     1  0.000  0.000  0.000  0.000  0.000  0.005  0.000  0.005  0.000  0.047
     2  0.000  0.000  0.000  0.000  0.000  0.004  0.000  0.004  0.000  0.012
tot     0.000  0.000  0.000  0.000  0.000  0.009  0.000  0.009  0.000  0.059
 k-point       6 :     0.031250    0.000000    0.031250 weight =     1.000000

band       1 # energy    -3.418893 # occ.     2.000000

ion       s      py     pz     px    dxy    dyz    dz2    dxz    dx2    tot
     1  0.538  0.000  0.000  0.000  0.000  0.000  0.000  0.000  0.000  0.538
     2  0.000  0.000  0.000  0.000  0.000  0.000  0.000  0.000  0.000  0.000
tot     0.538  0.000  0.000  0.000  0.000  0.000  0.000  0.000  0.000  0.538
band       2 # energy    -1.979307 # occ.     2.000000

ion       s      py     pz     px    dxy    dyz    dz2    dxz    dx2    tot
     1  0.000  0.298  0.000  0.298  0.000  0.000  0.000  0.000  0.000  0.595
     2  0.000  0.000  0.000  0.000  0.000  0.000  0.000  0.000  0.000  0.000
tot     0.000  0.298  0.000  0.298  0.000  0.000  0.000  0.000  0.000  0.595
band       3 # energy    -1.979299 # occ.     2.000000

ion       s      py     pz     px    dxy    dyz    dz2    dxz    dx2    tot
     1  0.000  0.298  0.000  0.298  0.000  0.000  0.000  0.000  0.000  0.595
     2  0.000  0.000  0.000  0.000  0.000  0.000  0.000  0.000  0.000  0.000
tot     0.000  0.298  0.000  0.298  0.000  0.000  0.000  0.000  0.000  0.595
band       4 # energy    -1.979299 # occ.     2.000000

ion       s      py     pz     px    dxy    dyz    dz2    dxz    dx2    tot
     1  0.000  0.000  0.595  0.000  0.000  0.000  0.000  0.000  0.000  0.595
     2  0.000  0.000  0.000  0.000  0.000  0.000  0.000  0.000  0.000  0.000
tot     0.000  0.000  0.595  0.000  0.000  0.000  0.000  0.000  0.000  0.595
band       5 # energy    -0.403302 # occ.     2.000000

ion       s      py     pz     px    dxy    dyz    dz2    dxz    dx2    tot
     1  0.031  0.000  0.000  0.000  0.000  0.000  0.000  0.000  0.000  0.031
     2  0.663  0.000  0.000  0.000  0.000  0.000  0.000  0.000  0.000  0.663
tot     0.694  0.000  0.000  0.000  0.000  0.000  0.000  0.000  0.000  0.694
band       6 # energy     0.220102 # occ.     2.000000

ion       s      py     pz     px    dxy    dyz    dz2    dxz    dx2    tot
     1  0.003  0.003  0.000  0.003  0.014  0.000  0.010  0.000  0.014  0.053
     2  0.005  0.231  0.000  0.231  0.000  0.000  0.000  0.000  0.000  0.468