
     Program PWSCF v.6.3MaX starts on 25Jun2020 at  2:37:45 

     This program is part of the open-source Quantum ESPRESSO suite
     for quantum simulation of materials; please cite
         "P. Giannozzi et al., J. Phys.:Condens. Matter 21 395502 (2009);
         "P. Giannozzi et al., J. Phys.:Condens. Matter 29 465901 (2017);
          URL http://www.quantum-espresso.org", 
     in publications or presentations arising from this work. More details at
     http://www.quantum-espresso.org/quote

     Serial version
     Waiting for input...
     Reading input from standard input

     Current dimensions of program PWSCF are:
     Max number of different atomic species (ntypx) = 10
     Max number of k-points (npk) =  40000
     Max angular momentum in pseudopotentials (lmaxx) =  3
               file F.pbe-n-kjpaw_psl.1.0.0.UPF: wavefunction(s)  2S 2P renormalized

     G-vector sticks info
     --------------------
     sticks:   dense  smooth     PW     G-vecs:    dense   smooth      PW
     Sum        2563     199     85                85851     1917     459



     bravais-lattice index     =            0
     lattice parameter (alat)  =       5.4564  a.u.
     unit-cell volume          =     114.8712 (a.u.)^3
     number of atoms/cell      =            2
     number of atomic types    =            2
     number of electrons       =        10.00
     number of Kohn-Sham states=            6
     kinetic-energy cutoff     =      25.0000  Ry
     charge density cutoff     =    1250.0000  Ry
     convergence threshold     =      1.0E-08
     mixing beta               =       0.7000
     number of iterations used =            8  plain     mixing
     Exchange-correlation      = SLA PW PBX PBC ( 1  4  3  4 0 0)

     celldm(1)=   5.456431  celldm(2)=   0.000000  celldm(3)=   0.000000
     celldm(4)=   0.000000  celldm(5)=   0.000000  celldm(6)=   0.000000

     crystal axes: (cart. coord. in units of alat)
               a(1) = (   0.866025   0.000000   0.500000 )  
               a(2) = (   0.288675   0.816497   0.500000 )  
               a(3) = (   0.000000   0.000000   1.000000 )  

     reciprocal axes: (cart. coord. in units 2 pi/alat)
               b(1) = (  1.154701 -0.408248  0.000000 )  
               b(2) = (  0.000000  1.224745  0.000000 )  
               b(3) = ( -0.577350 -0.408248  1.000000 )  


     PseudoPot. # 1 for F  read from file:
     ./F.pbe-n-kjpaw_psl.1.0.0.UPF
     MD5 check sum: 66d718ea72839a4268ab2a9540e8cdd4
     Pseudo is Projector augmented-wave + core cor, Zval =  7.0
     Generated using "atomic" code by A. Dal Corso v.6.3
     Shape of augmentation charge: PSQ
     Using radial grid of 1105 points,  4 beta functions with: 
                l(1) =   0
                l(2) =   0
                l(3) =   1
                l(4) =   1
     Q(r) pseudized with 0 coefficients 


     PseudoPot. # 2 for Li read from file:
     ./Li.pbe-s-kjpaw_psl.1.0.0.UPF
     MD5 check sum: 3974953fb0fea6c4f83fb01d64ffc134
     Pseudo is Projector augmented-wave, Zval =  3.0
     Generated using "atomic" code by A. Dal Corso v.6.3
     Shape of augmentation charge: PSQ
     Using radial grid of 1017 points,  4 beta functions with: 
                l(1) =   0
                l(2) =   0
                l(3) =   1
                l(4) =   1
     Q(r) pseudized with 0 coefficients 


     atomic species   valence    mass     pseudopotential
        F              7.00    18.99840     F ( 1.00)
        Li             3.00     6.94100     Li( 1.00)

     Starting magnetic structure 
     atomic species   magnetization
        F            0.700
        Li           0.000

     No symmetry found



   Cartesian axes

     site n.     atom                  positions (alat units)
         1           Li  tau(   1) = (   0.0000000   0.0000000   0.0000000  )
         2           F   tau(   2) = (   0.5773503   0.4082483   1.0000000  )

     number of k points=   612  Marzari-Vanderbilt smearing, width (Ry)=  0.0050

     Number of k-points >= 100: set verbosity='high' to print them.

     Dense  grid:    85851 G-vectors     FFT dimensions: (  64,  64,  64)

     Smooth grid:     1917 G-vectors     FFT dimensions: (  18,  18,  18)

     Estimated max dynamical RAM per process >     179.43 MB
     Generating pointlists ...
     new r_m :   0.2917 (alat units)  1.5915 (a.u.) for type    1
     new r_m :   0.2917 (alat units)  1.5915 (a.u.) for type    2

     Initial potential from superposition of free atoms

     starting charge    9.99539, renormalised to   10.00000
     Starting wfcs are    9 randomized atomic wfcs

     total cpu time spent up to now is        6.3 secs

     Self-consistent Calculation

     iteration #  1     ecut=    25.00 Ry     beta= 0.70
     Davidson diagonalization with overlap
     ethr =  1.00E-02,  avg # of iterations =  2.1

     total cpu time spent up to now is       13.0 secs

     total energy              =     -74.24692785 Ry
     Harris-Foulkes estimate   =     -73.65276464 Ry
     estimated scf accuracy    <       0.60239670 Ry

     total magnetization       =     0.00 Bohr mag/cell
     absolute magnetization    =     0.80 Bohr mag/cell

     iteration #  2     ecut=    25.00 Ry     beta= 0.70
     Davidson diagonalization with overlap
     ethr =  6.02E-03,  avg # of iterations =  1.0

     total cpu time spent up to now is       18.6 secs

     total energy              =     -74.33895985 Ry
     Harris-Foulkes estimate   =     -74.26873771 Ry
     estimated scf accuracy    <       0.08157033 Ry

     total magnetization       =    -0.00 Bohr mag/cell
     absolute magnetization    =     0.37 Bohr mag/cell

     iteration #  3     ecut=    25.00 Ry     beta= 0.70
     Davidson diagonalization with overlap
     ethr =  8.16E-04,  avg # of iterations =  1.9

     total cpu time spent up to now is       24.8 secs

     total energy              =     -74.35011970 Ry
     Harris-Foulkes estimate   =     -74.34888592 Ry
     estimated scf accuracy    <       0.00049771 Ry

     total magnetization       =     0.00 Bohr mag/cell
     absolute magnetization    =     0.06 Bohr mag/cell

     iteration #  4     ecut=    25.00 Ry     beta= 0.70
     Davidson diagonalization with overlap
     ethr =  4.98E-06,  avg # of iterations =  2.3

     total cpu time spent up to now is       32.1 secs

     total energy              =     -74.35045624 Ry
     Harris-Foulkes estimate   =     -74.35035846 Ry
     estimated scf accuracy    <       0.00003036 Ry

     total magnetization       =    -0.00 Bohr mag/cell
     absolute magnetization    =     0.01 Bohr mag/cell

     iteration #  5     ecut=    25.00 Ry     beta= 0.70
     Davidson diagonalization with overlap
     ethr =  3.04E-07,  avg # of iterations =  2.1

     total cpu time spent up to now is       39.0 secs

     total energy              =     -74.35047761 Ry
     Harris-Foulkes estimate   =     -74.35047509 Ry
     estimated scf accuracy    <       0.00000348 Ry

     total magnetization       =     0.00 Bohr mag/cell
     absolute magnetization    =     0.00 Bohr mag/cell

     iteration #  6     ecut=    25.00 Ry     beta= 0.70
     Davidson diagonalization with overlap
     ethr =  3.48E-08,  avg # of iterations =  2.0

     total cpu time spent up to now is       45.8 secs

     total energy              =     -74.35047922 Ry
     Harris-Foulkes estimate   =     -74.35047910 Ry
     estimated scf accuracy    <       0.00000092 Ry

     total magnetization       =     0.00 Bohr mag/cell
     absolute magnetization    =     0.00 Bohr mag/cell

     iteration #  7     ecut=    25.00 Ry     beta= 0.70
     Davidson diagonalization with overlap
     ethr =  9.16E-09,  avg # of iterations =  1.9

     Magnetic moment per site:
     atom:    1    charge:    2.1391    magn:    0.0000    constr:    0.0000
     atom:    2    charge:    6.6213    magn:   -0.0000    constr:    0.0000

     total cpu time spent up to now is       52.3 secs

     End of self-consistent calculation

     Number of k-points >= 100: set verbosity='high' to print the bands.

     the Fermi energy is     1.2535 ev

!    total energy              =     -74.35047946 Ry
     Harris-Foulkes estimate   =     -74.35047941 Ry
     estimated scf accuracy    <          7.3E-10 Ry

     total all-electron energy =      -214.763212 Ry

     The total energy is the sum of the following terms:

     one-electron contribution =     -27.30416574 Ry
     hartree contribution      =      17.60907820 Ry
     xc contribution           =     -13.18262437 Ry
     ewald contribution        =     -40.39245525 Ry
     one-center paw contrib.   =     -11.08031230 Ry
     smearing contrib. (-TS)   =       0.00000000 Ry

     total magnetization       =    -0.00 Bohr mag/cell
     absolute magnetization    =     0.00 Bohr mag/cell

     convergence has been achieved in   7 iterations

     Writing output data file LiF.save/

     init_run     :      5.45s CPU      5.58s WALL (       1 calls)
     electrons    :     44.93s CPU     46.03s WALL (       1 calls)

     Called by init_run:
     wfcinit      :      2.76s CPU      2.83s WALL (       1 calls)
     potinit      :      1.35s CPU      1.37s WALL (       1 calls)
     hinit0       :      1.19s CPU      1.19s WALL (       1 calls)

     Called by electrons:
     c_bands      :     30.99s CPU     31.56s WALL (       7 calls)
     sum_band     :      6.61s CPU      6.88s WALL (       7 calls)
     v_of_rho     :      4.97s CPU      5.04s WALL (       8 calls)
     newd         :      0.78s CPU      0.98s WALL (       8 calls)
     PAW_pot      :      2.34s CPU      2.35s WALL (       8 calls)
     mix_rho      :      0.21s CPU      0.21s WALL (       7 calls)

     Called by c_bands:
     init_us_2    :      1.56s CPU      1.59s WALL (   18360 calls)
     cegterg      :     29.48s CPU     30.02s WALL (    8568 calls)

     Called by sum_band:
     sum_band:bec :      0.03s CPU      0.03s WALL (    8568 calls)
     addusdens    :      0.90s CPU      1.10s WALL (       7 calls)

     Called by *egterg:
     h_psi        :     26.29s CPU     26.77s WALL (   26090 calls)
     s_psi        :      1.09s CPU      1.11s WALL (   26090 calls)
     g_psi        :      0.22s CPU      0.22s WALL (   16298 calls)
     cdiaghg      :      1.47s CPU      1.53s WALL (   24866 calls)

     Called by h_psi:
     h_psi:pot    :     26.19s CPU     26.66s WALL (   26090 calls)
     h_psi:calbec :      1.04s CPU      1.06s WALL (   26090 calls)
     vloc_psi     :     23.97s CPU     24.40s WALL (   26090 calls)
     add_vuspsi   :      1.10s CPU      1.12s WALL (   26090 calls)

     General routines
     calbec       :      1.34s CPU      1.37s WALL (   34658 calls)
     fft          :      1.54s CPU      1.55s WALL (     196 calls)
     ffts         :      0.00s CPU      0.00s WALL (      30 calls)
     fftw         :     26.02s CPU     26.48s WALL (  332028 calls)
     interpolate  :      0.14s CPU      0.14s WALL (      16 calls)


     PWSCF        :    51.05s CPU        52.57s WALL


   This run was terminated on:   2:38:38  25Jun2020            

=------------------------------------------------------------------------------=
   JOB DONE.
=------------------------------------------------------------------------------=
