   2    2    1    2
  1.7022154e+01   2.8874192e-10   2.8874192e-10   2.8874192e-10   0.0000000e+00
            0.000000e+00
  CAR
 DOS and projected DOS file by LOBSTER. Energy is shifted such that the Fermi level lies at 0 eV. 
     20.52518257     -19.52488000   801       2.50265441       1.00000000
-22.02753   0.00000   0.00000   1.00000   1.00000
-21.97747   0.00000   0.00000   1.00000   1.00000
-21.92741   0.00000   0.00000   1.00000   1.00000
-21.87735   0.00000   0.00000   1.00000   1.00000
-21.82728   0.05808   0.05810   1.00291   1.00291
-21.77722   0.00044   0.00048   1.00293   1.00293
-21.72716   0.81485   0.81482   1.04372   1.04372
-21.67710   0.00017   0.00014   1.04373   1.04373
-21.62703   0.69883   0.69883   1.07872   1.07872
-21.57697   1.86356   1.86356   1.17201   1.17201
-21.52691   0.00000   0.00000   1.17201   1.17201
-21.47685   1.73767   1.73900   1.25900   1.25907
-21.42678   3.26886   3.26788   1.42265   1.42267
-21.37672   1.39894   1.39870   1.49269   1.49269
-21.32666   3.36429   3.43886   1.66111   1.66485
-21.27660   2.51650   2.47388   1.78709   1.78870
-21.22653   3.55379   3.52179   1.96501   1.96501
-21.17647   0.69901   0.69897   2.00000   2.00000
-21.12641   0.00000   0.00000   2.00000   2.00000
-21.07635   0.00000   0.00000   2.00000   2.00000
-21.02628   0.00000   0.00000   2.00000   2.00000
-20.97622   0.00000   0.00000   2.00000   2.00000
-20.92616   0.00000   0.00000   2.00000   2.00000
-20.87610   0.00000   0.00000   2.00000   2.00000
-20.82603   0.00000   0.00000   2.00000   2.00000
-20.77597   0.00000   0.00000   2.00000   2.00000
-20.72591   0.00000   0.00000   2.00000   2.00000
-20.67584   0.00000   0.00000   2.00000   2.00000
-20.62578   0.00000   0.00000   2.00000   2.00000
-20.57572   0.00000   0.00000   2.00000   2.00000
-20.52566   0.00000   0.00000   2.00000   2.00000
-20.47559   0.00000   0.00000   2.00000   2.00000
-20.42553   0.00000   0.00000   2.00000   2.00000
-20.37547   0.00000   0.00000   2.00000   2.00000
-20.32541   0.00000   0.00000   2.00000   2.00000
-20.27534   0.00000   0.00000   2.00000   2.00000
-20.22528   0.00000   0.00000   2.00000   2.00000
-20.17522   0.00000   0.00000   2.00000   2.00000
-20.12516   0.00000   0.00000   2.00000   2.00000
-20.07509   0.00000   0.00000   2.00000   2.00000
-20.02503   0.00000   0.00000   2.00000   2.00000
-19.97497   0.00000   0.00000   2.00000   2.00000
-19.92491   0.00000   0.00000   2.00000   2.00000
-19.87484   0.00000   0.00000   2.00000   2.00000
-19.82478   0.00000   0.00000   2.00000   2.00000
-19.77472   0.00000   0.00000   2.00000   2.00000
-19.72466   0.00000   0.00000   2.00000   2.00000
-19.67459   0.00000   0.00000   2.00000   2.00000
-19.62453   0.00000   0.00000   2.00000   2.00000
-19.57447   0.00000   0.00000   2.00000   2.00000
-19.52441   0.00000   0.00000   2.00000   2.00000
-19.47434   0.00000   0.00000   2.00000   2.00000
-19.42428   0.00000   0.00000   2.00000   2.00000
-19.37422   0.00000   0.00000   2.00000   2.00000
-19.32416   0.00000   0.00000   2.00000   2.00000
-19.27409   0.00000   0.00000   2.00000   2.00000
-19.22403   0.00000   0.00000   2.00000   2.00000
-19.17397   0.00000   0.00000   2.00000   2.00000
-19.12390   0.00000   0.00000   2.00000   2.00000
-19.07384   0.00000   0.00000   2.00000   2.00000
-19.02378   0.00000   0.00000   2.00000   2.00000
-18.97372   0.00000   0.00000   2.00000   2.00000
-18.92365   0.00000   0.00000   2.00000   2.00000
-18.87359   0.00000   0.00000   2.00000   2.00000
-18.82353   0.00000   0.00000   2.00000   2.00000
-18.77347   0.00000   0.00000   2.00000   2.00000
-18.72340   0.00000   0.00000   2.00000   2.00000
-18.67334   0.00000   0.00000   2.00000   2.00000
-18.62328   0.00000   0.00000   2.00000   2.00000
-18.57322   0.00000   0.00000   2.00000   2.00000
-18.52315   0.00000   0.00000   2.00000   2.00000
-18.47309   0.00000   0.00000   2.00000   2.00000
-18.42303   0.00000   0.00000   2.00000   2.00000
-18.37297   0.00000   0.00000   2.00000   2.00000
-18.32290   0.00000   0.00000   2.00000   2.00000
-18.27284   0.00000   0.00000   2.00000   2.00000
-18.22278   0.00000   0.00000   2.00000   2.00000
-18.17272   0.00000   0.00000   2.00000   2.00000
-18.12265   0.00000   0.00000   2.00000   2.00000
-18.07259   0.00000   0.00000   2.00000   2.00000
-18.02253   0.00000   0.00000   2.00000   2.00000
-17.97247   0.00000   0.00000   2.00000   2.00000
-17.92240   0.00000   0.00000   2.00000   2.00000
-17.87234   0.00000   0.00000   2.00000   2.00000
-17.82228   0.00000   0.00000   2.00000   2.00000
-17.77222   0.00000   0.00000   2.00000   2.00000
-17.72215   0.00000   0.00000   2.00000   2.00000
-17.67209   0.00000   0.00000   2.00000   2.00000
-17.62203   0.00000   0.00000   2.00000   2.00000
-17.57196   0.00000   0.00000   2.00000   2.00000
-17.52190   0.00000   0.00000   2.00000   2.00000
-17.47184   0.00000   0.00000   2.00000   2.00000
-17.42178   0.00000   0.00000   2.00000   2.00000
-17.37171   0.00000   0.00000   2.00000   2.00000
-17.32165   0.00000   0.00000   2.00000   2.00000
-17.27159   0.00000   0.00000   2.00000   2.00000
-17.22153   0.00000   0.00000   2.00000   2.00000
-17.17146   0.00000   0.00000   2.00000   2.00000
-17.12140   0.00000   0.00000   2.00000   2.00000
-17.07134   0.00000   0.00000   2.00000   2.00000
-17.02128   0.00000   0.00000   2.00000   2.00000
-16.97121   0.00000   0.00000   2.00000   2.00000
-16.92115   0.00000   0.00000   2.00000   2.00000
-16.87109   0.00000   0.00000   2.00000   2.00000
-16.82103   0.00000   0.00000   2.00000   2.00000
-16.77096   0.00000   0.00000   2.00000   2.00000
-16.72090   0.00000   0.00000   2.00000   2.00000
-16.67084   0.00000   0.00000   2.00000   2.00000
-16.62078   0.00000   0.00000   2.00000   2.00000
-16.57071   0.00000   0.00000   2.00000   2.00000
-16.52065   0.00000   0.00000   2.00000   2.00000
-16.47059   0.00000   0.00000   2.00000   2.00000
-16.42053   0.00000   0.00000   2.00000   2.00000
-16.37046   0.00000   0.00000   2.00000   2.00000
-16.32040   0.00000   0.00000   2.00000   2.00000
-16.27034   0.00000   0.00000   2.00000   2.00000
-16.22028   0.00000   0.00000   2.00000   2.00000
-16.17021   0.00000   0.00000   2.00000   2.00000
-16.12015   0.00000   0.00000   2.00000   2.00000
-16.07009   0.00000   0.00000   2.00000   2.00000
-16.02003   0.00000   0.00000   2.00000   2.00000
-15.96996   0.00000   0.00000   2.00000   2.00000
-15.91990   0.00000   0.00000   2.00000   2.00000
-15.86984   0.00000   0.00000   2.00000   2.00000
-15.81977   0.00000   0.00000   2.00000   2.00000
-15.76971   0.00000   0.00000   2.00000   2.00000
-15.71965   0.00000   0.00000   2.00000   2.00000
-15.66959   0.00000   0.00000   2.00000   2.00000
-15.61952   0.00000   0.00000   2.00000   2.00000
-15.56946   0.00000   0.00000   2.00000   2.00000
-15.51940   0.00000   0.00000   2.00000   2.00000
-15.46934   0.00000   0.00000   2.00000   2.00000
-15.41927   0.00000   0.00000   2.00000   2.00000
-15.36921   0.00000   0.00000   2.00000   2.00000
-15.31915   0.00000   0.00000   2.00000   2.00000
-15.26909   0.00000   0.00000   2.00000   2.00000
-15.21902   0.00000   0.00000   2.00000   2.00000
-15.16896   0.00000   0.00000   2.00000   2.00000
-15.11890   0.00000   0.00000   2.00000   2.00000
-15.06884   0.00000   0.00000   2.00000   2.00000
-15.01877   0.00000   0.00000   2.00000   2.00000
-14.96871   0.00000   0.00000   2.00000   2.00000
-14.91865   0.00000   0.00000   2.00000   2.00000
-14.86859   0.00000   0.00000   2.00000   2.00000
-14.81852   0.00000   0.00000   2.00000   2.00000
-14.76846   0.00000   0.00000   2.00000   2.00000
-14.71840   0.00000   0.00000   2.00000   2.00000
-14.66834   0.00000   0.00000   2.00000   2.00000
-14.61827   0.00000   0.00000   2.00000   2.00000
-14.56821   0.00000   0.00000   2.00000   2.00000
-14.51815   0.00000   0.00000   2.00000   2.00000
-14.46809   0.00000   0.00000   2.00000   2.00000
-14.41802   0.00000   0.00000   2.00000   2.00000
-14.36796   0.00000   0.00000   2.00000   2.00000
-14.31790   0.00000   0.00000   2.00000   2.00000
-14.26783   0.00000   0.00000   2.00000   2.00000
-14.21777   0.00000   0.00000   2.00000   2.00000
-14.16771   0.00000   0.00000   2.00000   2.00000
-14.11765   0.00000   0.00000   2.00000   2.00000
-14.06758   0.00000   0.00000   2.00000   2.00000
-14.01752   0.00000   0.00000   2.00000   2.00000
-13.96746   0.00000   0.00000   2.00000   2.00000
-13.91740   0.00000   0.00000   2.00000   2.00000
-13.86733   0.00000   0.00000   2.00000   2.00000
-13.81727   0.00000   0.00000   2.00000   2.00000
-13.76721   0.00000   0.00000   2.00000   2.00000
-13.71715   0.00000   0.00000   2.00000   2.00000
-13.66708   0.00000   0.00000   2.00000   2.00000
-13.61702   0.00000   0.00000   2.00000   2.00000
-13.56696   0.00000   0.00000   2.00000   2.00000
-13.51690   0.00000   0.00000   2.00000   2.00000
-13.46683   0.00000   0.00000   2.00000   2.00000
-13.41677   0.00000   0.00000   2.00000   2.00000
-13.36671   0.00000   0.00000   2.00000   2.00000
-13.31665   0.00000   0.00000   2.00000   2.00000
-13.26658   0.00000   0.00000   2.00000   2.00000
-13.21652   0.00000   0.00000   2.00000   2.00000
-13.16646   0.00000   0.00000   2.00000   2.00000
-13.11640   0.00000   0.00000   2.00000   2.00000
-13.06633   0.00000   0.00000   2.00000   2.00000
-13.01627   0.00000   0.00000   2.00000   2.00000
-12.96621   0.00000   0.00000   2.00000   2.00000
-12.91615   0.00000   0.00000   2.00000   2.00000
-12.86608   0.00000   0.00000   2.00000   2.00000
-12.81602   0.00000   0.00000   2.00000   2.00000
-12.76596   0.00000   0.00000   2.00000   2.00000
-12.71589   0.00000   0.00000   2.00000   2.00000
-12.66583   0.00000   0.00000   2.00000   2.00000
-12.61577   0.00000   0.00000   2.00000   2.00000
-12.56571   0.00000   0.00000   2.00000   2.00000
-12.51564   0.00000   0.00000   2.00000   2.00000
-12.46558   0.00000   0.00000   2.00000   2.00000
-12.41552   0.00000   0.00000   2.00000   2.00000
-12.36546   0.00000   0.00000   2.00000   2.00000
-12.31539   0.00000   0.00000   2.00000   2.00000
-12.26533   0.00000   0.00000   2.00000   2.00000
-12.21527   0.00000   0.00000   2.00000   2.00000
-12.16521   0.00000   0.00000   2.00000   2.00000
-12.11514   0.00000   0.00000   2.00000   2.00000
-12.06508   0.00000   0.00000   2.00000   2.00000
-12.01502   0.00000   0.00000   2.00000   2.00000
-11.96496   0.00000   0.00000   2.00000   2.00000
-11.91489   0.00000   0.00000   2.00000   2.00000
-11.86483   0.00000   0.00000   2.00000   2.00000
-11.81477   0.00000   0.00000   2.00000   2.00000
-11.76471   0.00000   0.00000   2.00000   2.00000
-11.71464   0.00000   0.00000   2.00000   2.00000
-11.66458   0.00000   0.00000   2.00000   2.00000
-11.61452   0.00000   0.00000   2.00000   2.00000
-11.56446   0.00000   0.00000   2.00000   2.00000
-11.51439   0.00000   0.00000   2.00000   2.00000
-11.46433   0.00000   0.00000   2.00000   2.00000
-11.41427   0.00000   0.00000   2.00000   2.00000
-11.36421   0.00000   0.00000   2.00000   2.00000
-11.31414   0.00000   0.00000   2.00000   2.00000
-11.26408   0.00000   0.00000   2.00000   2.00000
-11.21402   0.00000   0.00000   2.00000   2.00000
-11.16395   0.00000   0.00000   2.00000   2.00000
-11.11389   0.00000   0.00000   2.00000   2.00000
-11.06383   0.00000   0.00000   2.00000   2.00000
-11.01377   0.00000   0.00000   2.00000   2.00000
-10.96370   0.00000   0.00000   2.00000   2.00000
-10.91364   0.00000   0.00000   2.00000   2.00000
-10.86358   0.00000   0.00000   2.00000   2.00000
-10.81352   0.00000   0.00000   2.00000   2.00000
-10.76345   0.00000   0.00000   2.00000   2.00000
-10.71339   0.00000   0.00000   2.00000   2.00000
-10.66333   0.00000   0.00000   2.00000   2.00000
-10.61327   0.00000   0.00000   2.00000   2.00000
-10.56320   0.00000   0.00000   2.00000   2.00000
-10.51314   0.00000   0.00000   2.00000   2.00000
-10.46308   0.00000   0.00000   2.00000   2.00000
-10.41302   0.00000   0.00000   2.00000   2.00000
-10.36295   0.00000   0.00000   2.00000   2.00000
-10.31289   0.00000   0.00000   2.00000   2.00000
-10.26283   0.00000   0.00000   2.00000   2.00000
-10.21277   0.00000   0.00000   2.00000   2.00000
-10.16270   0.00000   0.00000   2.00000   2.00000
-10.11264   0.00000   0.00000   2.00000   2.00000
-10.06258   0.00000   0.00000   2.00000   2.00000
-10.01252   0.00000   0.00000   2.00000   2.00000
 -9.96245   0.00000   0.00000   2.00000   2.00000
 -9.91239   0.00000   0.00000   2.00000   2.00000
 -9.86233   0.00000   0.00000   2.00000   2.00000
 -9.81227   0.00000   0.00000   2.00000   2.00000
 -9.76220   0.00000   0.00000   2.00000   2.00000
 -9.71214   0.00000   0.00000   2.00000   2.00000
 -9.66208   0.00000   0.00000   2.00000   2.00000
 -9.61202   0.00000   0.00000   2.00000   2.00000
 -9.56195   0.00000   0.00000   2.00000   2.00000
 -9.51189   0.00000   0.00000   2.00000   2.00000
 -9.46183   0.00000   0.00000   2.00000   2.00000
 -9.41176   0.00000   0.00000   2.00000   2.00000
 -9.36170   0.00000   0.00000   2.00000   2.00000
 -9.31164   0.00000   0.00000   2.00000   2.00000
 -9.26158   0.00000   0.00000   2.00000   2.00000
 -9.21151   0.00000   0.00000   2.00000   2.00000
 -9.16145   0.00000   0.00000   2.00000   2.00000
 -9.11139   0.00000   0.00000   2.00000   2.00000
 -9.06133   0.00000   0.00000   2.00000   2.00000
 -9.01126   0.00000   0.00000   2.00000   2.00000
 -8.96120   0.00000   0.00000   2.00000   2.00000
 -8.91114   0.00000   0.00000   2.00000   2.00000
 -8.86108   0.00000   0.00000   2.00000   2.00000
 -8.81101   0.00000   0.00000   2.00000   2.00000
 -8.76095   0.00000   0.00000   2.00000   2.00000
 -8.71089   0.00000   0.00000   2.00000   2.00000
 -8.66083   0.00000   0.00000   2.00000   2.00000
 -8.61076   0.00000   0.00000   2.00000   2.00000
 -8.56070   0.00000   0.00000   2.00000   2.00000
 -8.51064   0.00000   0.00000   2.00000   2.00000
 -8.46058   0.00000   0.00000   2.00000   2.00000
 -8.41051   0.00000   0.00000   2.00000   2.00000
 -8.36045   0.00000   0.00000   2.00000   2.00000
 -8.31039   0.00000   0.00000   2.00000   2.00000
 -8.26033   0.00000   0.00000   2.00000   2.00000
 -8.21026   0.00000   0.00000   2.00000   2.00000
 -8.16020   0.00000   0.00000   2.00000   2.00000
 -8.11014   0.00000   0.00000   2.00000   2.00000
 -8.06008   0.00000   0.00000   2.00000   2.00000
 -8.01001   0.00000   0.00000   2.00000   2.00000
 -7.95995   0.00000   0.00000   2.00000   2.00000
 -7.90989   0.00000   0.00000   2.00000   2.00000
 -7.85982   0.00000   0.00000   2.00000   2.00000
 -7.80976   0.00000   0.00000   2.00000   2.00000
 -7.75970   0.00000   0.00000   2.00000   2.00000
 -7.70964   0.00000   0.00000   2.00000   2.00000
 -7.65957   0.00000   0.00000   2.00000   2.00000
 -7.60951   0.00000   0.00000   2.00000   2.00000
 -7.55945   0.00000   0.00000   2.00000   2.00000
 -7.50939   0.00000   0.00000   2.00000   2.00000
 -7.45932   0.00000   0.00000   2.00000   2.00000
 -7.40926   0.00000   0.00000   2.00000   2.00000
 -7.35920   0.00000   0.00000   2.00000   2.00000
 -7.30914   0.00000   0.00000   2.00000   2.00000
 -7.25907   0.00000   0.00000   2.00000   2.00000
 -7.20901   0.00000   0.00000   2.00000   2.00000
 -7.15895   0.00000   0.00000   2.00000   2.00000
 -7.10889   0.00000   0.00000   2.00000   2.00000
 -7.05882   0.00000   0.00000   2.00000   2.00000
 -7.00876   0.00000   0.00000   2.00000   2.00000
 -6.95870   0.00000   0.00000   2.00000   2.00000
 -6.90864   0.00000   0.00000   2.00000   2.00000
 -6.85857   0.00000   0.00000   2.00000   2.00000
 -6.80851   0.00000   0.00000   2.00000   2.00000
 -6.75845   0.00000   0.00000   2.00000   2.00000
 -6.70839   0.00000   0.00000   2.00000   2.00000
 -6.65832   0.00000   0.00000   2.00000   2.00000
 -6.60826   0.00000   0.00000   2.00000   2.00000
 -6.55820   0.00000   0.00000   2.00000   2.00000
 -6.50814   0.00000   0.00000   2.00000   2.00000
 -6.45807   0.00000   0.00000   2.00000   2.00000
 -6.40801   0.00000   0.00000   2.00000   2.00000
 -6.35795   0.00000   0.00000   2.00000   2.00000
 -6.30788   0.00000   0.00000   2.00000   2.00000
 -6.25782   0.00000   0.00000   2.00000   2.00000
 -6.20776   0.00000   0.00000   2.00000   2.00000
 -6.15770   0.00000   0.00000   2.00000   2.00000
 -6.10763   0.00000   0.00000   2.00000   2.00000
 -6.05757   0.00000   0.00000   2.00000   2.00000
 -6.00751   0.00000   0.00000   2.00000   2.00000
 -5.95745   0.00000   0.00000   2.00000   2.00000
 -5.90738   0.00000   0.00000   2.00000   2.00000
 -5.85732   0.00000   0.00000   2.00000   2.00000
 -5.80726   0.00000   0.00000   2.00000   2.00000
 -5.75720   0.00000   0.00000   2.00000   2.00000
 -5.70713   0.00000   0.00000   2.00000   2.00000
 -5.65707   0.00000   0.00000   2.00000   2.00000
 -5.60701   0.00000   0.00000   2.00000   2.00000
 -5.55695   0.00000   0.00000   2.00000   2.00000
 -5.50688   0.00000   0.00000   2.00000   2.00000
 -5.45682   0.00000   0.00000   2.00000   2.00000
 -5.40676   0.00000   0.00000   2.00000   2.00000
 -5.35670   0.00000   0.00000   2.00000   2.00000
 -5.30663   0.00000   0.00000   2.00000   2.00000
 -5.25657   0.00000   0.00000   2.00000   2.00000
 -5.20651   0.00000   0.00000   2.00000   2.00000
 -5.15645   0.00000   0.00000   2.00000   2.00000
 -5.10638   0.00000   0.00000   2.00000   2.00000
 -5.05632   0.00000   0.00000   2.00000   2.00000
 -5.00626   0.00000   0.00000   2.00000   2.00000
 -4.95620   0.00000   0.00000   2.00000   2.00000
 -4.90613   0.00000   0.00000   2.00000   2.00000
 -4.85607   0.00000   0.00000   2.00000   2.00000
 -4.80601   0.00000   0.00000   2.00000   2.00000
 -4.75594   0.00000   0.00000   2.00000   2.00000
 -4.70588   0.00000   0.00000   2.00000   2.00000
 -4.65582   0.27675   0.27732   2.01385   2.01388
 -4.60576   0.77150   0.77093   2.05248   2.05248
 -4.55569   0.00000   0.00000   2.05248   2.05248
 -4.50563   0.00000   0.00000   2.05248   2.05248
 -4.45557   0.00000   0.00000   2.05248   2.05248
 -4.40551   0.00000   0.00000   2.05248   2.05248
 -4.35544   1.39767   1.39767   2.12245   2.12245
 -4.30538   0.00000   0.00000   2.12245   2.12245
 -4.25532   1.86355   1.86355   2.21574   2.21574
 -4.20526   1.41549   1.41607   2.28661   2.28664
 -4.15519   1.37986   1.37927   2.35569   2.35568
 -4.10513   0.00000   0.00000   2.35569   2.35569
 -4.05507   5.58362   5.58391   2.63522   2.63523
 -4.00501   0.00705   0.00676   2.63557   2.63557
 -3.95494   0.00000   0.00000   2.63557   2.63557
 -3.90488   0.00000   0.00000   2.63557   2.63557
 -3.85482   0.00000   0.00000   2.63557   2.63557
 -3.80476   0.03303   0.03459   2.63722   2.63730
 -3.75469   3.25720   3.26181   2.80029   2.80059
 -3.70463   1.60161   1.59544   2.88047   2.88047
 -3.65457   0.29872   0.30030   2.89542   2.89550
 -3.60451   0.05070   0.04912   2.89796   2.89796
 -3.55444   0.66186   0.66354   2.93109   2.93118
 -3.50438   0.50286   0.50118   2.95627   2.95627
 -3.45432   0.00000   0.00000   2.95627   2.95627
 -3.40426   0.00000   0.00000   2.95627   2.95627
 -3.35419   1.39767   1.39767   3.02624   3.02624
 -3.30413   0.03854   0.04097   3.02817   3.02829
 -3.25407   5.53808   5.53669   3.30542   3.30547
 -3.20401   0.01404   0.01301   3.30612   3.30612
 -3.15394   0.00000   0.00000   3.30612   3.30612
 -3.10388   0.69883   0.69883   3.34111   3.34111
 -3.05382   0.00000   0.00000   3.34111   3.34111
 -3.00375   0.69517   0.69549   3.37591   3.37593
 -2.95369   0.00366   0.00334   3.37609   3.37609
 -2.90363   0.00000   0.00000   3.37609   3.37609
 -2.85357   3.49417   3.49417   3.55102   3.55102
 -2.80350   0.69883   0.69883   3.58601   3.58601
 -2.75344   0.12441   0.13326   3.59223   3.59268
 -2.70338   1.29846   1.29205   3.65724   3.65736
 -2.65332   5.56547   5.56303   3.93586   3.93586
 -2.60325   0.00000   0.00000   3.93586   3.93586
 -2.55319   2.08612   2.08715   4.04030   4.04035
 -2.50313   1.85311   1.85382   4.13307   4.13315
 -2.45307   3.16557   3.16383   4.29154   4.29154
 -2.40300   0.00003   0.00003   4.29155   4.29155
 -2.35294   2.09727   2.09750   4.39654   4.39655
 -2.30288   3.49297   3.49308   4.57141   4.57142
 -2.25282   2.79575   2.79541   4.71137   4.71137
 -2.20275   0.00000   0.00000   4.71137   4.71137
 -2.15269   1.62564   1.62627   4.79275   4.79279
 -2.10263   2.33330   2.33284   4.90957   4.90957
 -2.05257   0.00112   0.00095   4.90962   4.90962
 -2.00250   1.42061   1.43291   4.98074   4.98136
 -1.95244   0.38471   0.37241   5.00000   5.00000
 -1.90238   0.00000   0.00000   5.00000   5.00000
 -1.85232   0.00000   0.00000   5.00000   5.00000
 -1.80225   0.00000   0.00000   5.00000   5.00000
 -1.75219   0.00000   0.00000   5.00000   5.00000
 -1.70213   0.00000   0.00000   5.00000   5.00000
 -1.65207   0.00000   0.00000   5.00000   5.00000
 -1.60200   0.00000   0.00000   5.00000   5.00000
 -1.55194   0.00000   0.00000   5.00000   5.00000
 -1.50188   0.00000   0.00000   5.00000   5.00000
 -1.45181   0.00000   0.00000   5.00000   5.00000
 -1.40175   0.00000   0.00000   5.00000   5.00000
 -1.35169   0.00000   0.00000   5.00000   5.00000
 -1.30163   0.00000   0.00000   5.00000   5.00000
 -1.25156   0.00000   0.00000   5.00000   5.00000
 -1.20150   0.00000   0.00000   5.00000   5.00000
 -1.15144   0.00000   0.00000   5.00000   5.00000
 -1.10138   0.00000   0.00000   5.00000   5.00000
 -1.05131   0.00000   0.00000   5.00000   5.00000
 -1.00125   0.00000   0.00000   5.00000   5.00000
 -0.95119   0.00000   0.00000   5.00000   5.00000
 -0.90113   0.00000   0.00000   5.00000   5.00000
 -0.85106   0.00000   0.00000   5.00000   5.00000
 -0.80100   0.00000   0.00000   5.00000   5.00000
 -0.75094   0.00000   0.00000   5.00000   5.00000
 -0.70088   0.00000   0.00000   5.00000   5.00000
 -0.65081   0.00000   0.00000   5.00000   5.00000
 -0.60075   0.00000   0.00000   5.00000   5.00000
 -0.55069   0.00000   0.00000   5.00000   5.00000
 -0.50063   0.00000   0.00000   5.00000   5.00000
 -0.45056   0.00000   0.00000   5.00000   5.00000
 -0.40050   0.00000   0.00000   5.00000   5.00000
 -0.35044   0.00000   0.00000   5.00000   5.00000
 -0.30038   0.00000   0.00000   5.00000   5.00000
 -0.25031   0.00000   0.00000   5.00000   5.00000
 -0.20025   0.00000   0.00000   5.00000   5.00000
 -0.15019   0.00000   0.00000   5.00000   5.00000
 -0.10013   0.00000   0.00000   5.00000   5.00000
 -0.05006   0.00000   0.00000   5.00000   5.00000
  0.00000   0.00000   0.00000   5.00000   5.00000
  0.05006   0.00000   0.00000   5.00000   5.00000
  0.10013   0.00000   0.00000   5.00000   5.00000
  0.15019   0.00000   0.00000   5.00000   5.00000
  0.20025   0.00000   0.00000   5.00000   5.00000
  0.25031   0.00000   0.00000   5.00000   5.00000
  0.30038   0.00000   0.00000   5.00000   5.00000
  0.35044   0.00000   0.00000   5.00000   5.00000
  0.40050   0.00000   0.00000   5.00000   5.00000
  0.45056   0.00000   0.00000   5.00000   5.00000
  0.50063   0.00000   0.00000   5.00000   5.00000
  0.55069   0.00000   0.00000   5.00000   5.00000
  0.60075   0.00000   0.00000   5.00000   5.00000
  0.65081   0.00000   0.00000   5.00000   5.00000
  0.70088   0.00000   0.00000   5.00000   5.00000
  0.75094   0.00000   0.00000   5.00000   5.00000
  0.80100   0.00000   0.00000   5.00000   5.00000
  0.85106   0.00000   0.00000   5.00000   5.00000
  0.90113   0.00000   0.00000   5.00000   5.00000
  0.95119   0.00000   0.00000   5.00000   5.00000
  1.00125   0.00000   0.00000   5.00000   5.00000
  1.05131   0.00000   0.00000   5.00000   5.00000
  1.10138   0.00000   0.00000   5.00000   5.00000
  1.15144   0.00000   0.00000   5.00000   5.00000
  1.20150   0.00000   0.00000   5.00000   5.00000
  1.25156   0.00000   0.00000   5.00000   5.00000
  1.30163   0.00000   0.00000   5.00000   5.00000
  1.35169   0.00000   0.00000   5.00000   5.00000
  1.40175   0.00000   0.00000   5.00000   5.00000
  1.45181   0.00000   0.00000   5.00000   5.00000
  1.50188   0.00000   0.00000   5.00000   5.00000
  1.55194   0.00000   0.00000   5.00000   5.00000
  1.60200   0.00000   0.00000   5.00000   5.00000
  1.65207   0.00000   0.00000   5.00000   5.00000
  1.70213   0.00000   0.00000   5.00000   5.00000
  1.75219   0.00000   0.00000   5.00000   5.00000
  1.80225   0.00000   0.00000   5.00000   5.00000
  1.85232   0.00000   0.00000   5.00000   5.00000
  1.90238   0.00000   0.00000   5.00000   5.00000
  1.95244   0.00000   0.00000   5.00000   5.00000
  2.00250   0.00000   0.00000   5.00000   5.00000
  2.05257   0.00000   0.00000   5.00000   5.00000
  2.10263   0.00000   0.00000   5.00000   5.00000
  2.15269   0.00000   0.00000   5.00000   5.00000
  2.20275   0.00000   0.00000   5.00000   5.00000
  2.25282   0.00000   0.00000   5.00000   5.00000
  2.30288   0.00000   0.00000   5.00000   5.00000
  2.35294   0.00000   0.00000   5.00000   5.00000
  2.40300   0.00000   0.00000   5.00000   5.00000
  2.45307   0.00000   0.00000   5.00000   5.00000
  2.50313   0.00000   0.00000   5.00000   5.00000
  2.55319   0.00000   0.00000   5.00000   5.00000
  2.60325   0.00000   0.00000   5.00000   5.00000
  2.65332   0.00000   0.00000   5.00000   5.00000
  2.70338   0.00000   0.00000   5.00000   5.00000
  2.75344   0.00000   0.00000   5.00000   5.00000
  2.80350   0.00000   0.00000   5.00000   5.00000
  2.85357   0.00000   0.00000   5.00000   5.00000
  2.90363   0.00000   0.00000   5.00000   5.00000
  2.95369   0.00000   0.00000   5.00000   5.00000
  3.00375   0.00000   0.00000   5.00000   5.00000
  3.05382   0.00000   0.00000   5.00000   5.00000
  3.10388   0.00000   0.00000   5.00000   5.00000
  3.15394   0.00000   0.00000   5.00000   5.00000
  3.20401   0.00000   0.00000   5.00000   5.00000
  3.25407   0.00000   0.00000   5.00000   5.00000
  3.30413   0.00000   0.00000   5.00000   5.00000
  3.35419   0.00000   0.00000   5.00000   5.00000
  3.40426   0.00000   0.00000   5.00000   5.00000
  3.45432   0.00000   0.00000   5.00000   5.00000
  3.50438   0.00000   0.00000   5.00000   5.00000
  3.55444   0.00000   0.00000   5.00000   5.00000
  3.60451   0.00000   0.00000   5.00000   5.00000
  3.65457   0.00000   0.00000   5.00000   5.00000
  3.70463   0.00000   0.00000   5.00000   5.00000
  3.75469   0.00000   0.00000   5.00000   5.00000
  3.80476   0.00000   0.00000   5.00000   5.00000
  3.85482   0.00000   0.00000   5.00000   5.00000
  3.90488   0.00000   0.00000   5.00000   5.00000
  3.95494   0.00000   0.00000   5.00000   5.00000
  4.00501   0.00000   0.00000   5.00000   5.00000
  4.05507   0.00000   0.00000   5.00000   5.00000
  4.10513   0.00000   0.00000   5.00000   5.00000
  4.15519   0.00000   0.00000   5.00000   5.00000
  4.20526   0.00000   0.00000   5.00000   5.00000
  4.25532   0.00000   0.00000   5.00000   5.00000
  4.30538   0.00000   0.00000   5.00000   5.00000
  4.35544   0.00000   0.00000   5.00000   5.00000
  4.40551   0.00000   0.00000   5.00000   5.00000
  4.45557   0.00000   0.00000   5.00000   5.00000
  4.50563   0.00000   0.00000   5.00000   5.00000
  4.55569   0.00000   0.00000   5.00000   5.00000
  4.60576   0.00000   0.00000   5.00000   5.00000
  4.65582   0.00000   0.00000   5.00000   5.00000
  4.70588   0.00000   0.00000   5.00000   5.00000
  4.75594   0.00000   0.00000   5.00000   5.00000
  4.80601   0.00000   0.00000   5.00000   5.00000
  4.85607   0.00000   0.00000   5.00000   5.00000
  4.90613   0.00000   0.00000   5.00000   5.00000
  4.95620   0.00000   0.00000   5.00000   5.00000
  5.00626   0.00000   0.00000   5.00000   5.00000
  5.05632   0.00000   0.00000   5.00000   5.00000
  5.10638   0.00000   0.00000   5.00000   5.00000
  5.15645   0.00000   0.00000   5.00000   5.00000
  5.20651   0.00000   0.00000   5.00000   5.00000
  5.25657   0.00000   0.00000   5.00000   5.00000
  5.30663   0.00000   0.00000   5.00000   5.00000
  5.35670   0.00000   0.00000   5.00000   5.00000
  5.40676   0.00000   0.00000   5.00000   5.00000
  5.45682   0.00000   0.00000   5.00000   5.00000
  5.50688   0.00000   0.00000   5.00000   5.00000
  5.55695   0.00000   0.00000   5.00000   5.00000
  5.60701   0.00000   0.00000   5.00000   5.00000
  5.65707   0.00000   0.00000   5.00000   5.00000
  5.70713   0.00000   0.00000   5.00000   5.00000
  5.75720   0.00000   0.00000   5.00000   5.00000
  5.80726   0.00000   0.00000   5.00000   5.00000
  5.85732   0.00000   0.00000   5.00000   5.00000
  5.90738   0.00000   0.00000   5.00000   5.00000
  5.95745   0.00000   0.00000   5.00000   5.00000
  6.00751   0.00000   0.00000   5.00000   5.00000
  6.05757   0.00000   0.00000   5.00000   5.00000
  6.10763   0.00000   0.00000   5.00000   5.00000
  6.15770   0.00000   0.00000   5.00000   5.00000
  6.20776   0.00000   0.00000   5.00000   5.00000
  6.25782   0.00000   0.00000   5.00000   5.00000
  6.30788   0.00000   0.00000   5.00000   5.00000
  6.35795   0.00000   0.00000   5.00000   5.00000
  6.40801   0.00000   0.00000   5.00000   5.00000
  6.45807   0.00000   0.00000   5.00000   5.00000
  6.50814   0.00000   0.00000   5.00000   5.00000
  6.55820   0.00000   0.00000   5.00000   5.00000
  6.60826   0.00000   0.00000   5.00000   5.00000
  6.65832   0.00000   0.00000   5.00000   5.00000
  6.70839   0.00000  -0.00000   5.00000   5.00000
  6.75845   0.05824   0.05824   5.00292   5.00292
  6.80851   0.00000   0.00000   5.00292   5.00292
  6.85857   0.00000   0.00000   5.00292   5.00292
  6.90864   0.00000   0.00000   5.00292   5.00292
  6.95870   0.00000   0.00000   5.00292   5.00292
  7.00876   0.00000   0.00000   5.00292   5.00292
  7.05882   0.00000   0.00000   5.00292   5.00292
  7.10889   0.00000   0.00000   5.00292   5.00292
  7.15895   0.00000   0.00000   5.00292   5.00292
  7.20901   0.00000   0.00000   5.00292   5.00292
  7.25907   0.00000   0.00000   5.00292   5.00292
  7.30914   0.46588   0.46587   5.02624   5.02624
  7.35920   0.00001   0.00001   5.02624   5.02624
  7.40926   0.00000   0.00000   5.02624   5.02624
  7.45932   0.00000   0.00000   5.02624   5.02624
  7.50939   0.00000   0.00000   5.02624   5.02624
  7.55945   0.20703   0.19451   5.03660   5.03598
  7.60951   0.14239   0.15491   5.04373   5.04373