
     Program PWSCF v.6.3MaX starts on 30Aug2020 at 11:12:11 

     This program is part of the open-source Quantum ESPRESSO suite
     for quantum simulation of materials; please cite
         "P. Giannozzi et al., J. Phys.:Condens. Matter 21 395502 (2009);
         "P. Giannozzi et al., J. Phys.:Condens. Matter 29 465901 (2017);
          URL http://www.quantum-espresso.org", 
     in publications or presentations arising from this work. More details at
     http://www.quantum-espresso.org/quote

     Parallel version (MPI), running on    16 processors

     MPI processes distributed on     1 nodes
     R & G space division:  proc/nbgrp/npool/nimage =      16
     Waiting for input...
     Reading input from standard input

     Current dimensions of program PWSCF are:
     Max number of different atomic species (ntypx) = 10
     Max number of k-points (npk) =  40000
     Max angular momentum in pseudopotentials (lmaxx) =  3
               file F.pbe-n-kjpaw_psl.1.0.0.UPF: wavefunction(s)  2S 2P renormalized

     Subspace diagonalization in iterative solution of the eigenvalue problem:
     a serial algorithm will be used


     Parallelization info
     --------------------
     sticks:   dense  smooth     PW     G-vecs:    dense   smooth      PW
     Min          77      51     15                 1785      973     168
     Max          78      52     16                 1788      977     172
     Sum        1237     823    253                28571    15593    2733



     bravais-lattice index     =            0
     lattice parameter (alat)  =       5.4564  a.u.
     unit-cell volume          =     114.8712 (a.u.)^3
     number of atoms/cell      =            2
     number of atomic types    =            2
     number of electrons       =        10.00
     number of Kohn-Sham states=           16
     kinetic-energy cutoff     =     100.0000  Ry
     charge density cutoff     =     600.0000  Ry
     convergence threshold     =      1.0E-08
     mixing beta               =       0.7000
     number of iterations used =            8  plain     mixing
     Exchange-correlation      = SLA PW PBX PBC ( 1  4  3  4 0 0)

     celldm(1)=   5.456431  celldm(2)=   0.000000  celldm(3)=   0.000000
     celldm(4)=   0.000000  celldm(5)=   0.000000  celldm(6)=   0.000000

     crystal axes: (cart. coord. in units of alat)
               a(1) = (   0.866025   0.000000   0.500000 )  
               a(2) = (   0.288675   0.816497   0.500000 )  
               a(3) = (   0.000000   0.000000   1.000000 )  

     reciprocal axes: (cart. coord. in units 2 pi/alat)
               b(1) = (  1.154701 -0.408248  0.000000 )  
               b(2) = (  0.000000  1.224745  0.000000 )  
               b(3) = ( -0.577350 -0.408248  1.000000 )  


     PseudoPot. # 1 for F  read from file:
     /scratch/lllang/LiF/pseudos/F.pbe-n-kjpaw_psl.1.0.0.UPF
     MD5 check sum: 66d718ea72839a4268ab2a9540e8cdd4
     Pseudo is Projector augmented-wave + core cor, Zval =  7.0
     Generated using "atomic" code by A. Dal Corso v.6.3
     Shape of augmentation charge: PSQ
     Using radial grid of 1105 points,  4 beta functions with: 
                l(1) =   0
                l(2) =   0
                l(3) =   1
                l(4) =   1
     Q(r) pseudized with 0 coefficients 


     PseudoPot. # 2 for Li read from file:
     /scratch/lllang/LiF/pseudos/Li.pbe-s-kjpaw_psl.1.0.0.UPF
     MD5 check sum: 3974953fb0fea6c4f83fb01d64ffc134
     Pseudo is Projector augmented-wave, Zval =  3.0
     Generated using "atomic" code by A. Dal Corso v.6.3
     Shape of augmentation charge: PSQ
     Using radial grid of 1017 points,  4 beta functions with: 
                l(1) =   0
                l(2) =   0
                l(3) =   1
                l(4) =   1
     Q(r) pseudized with 0 coefficients 


     atomic species   valence    mass     pseudopotential
        F              7.00    18.99840     F ( 1.00)
        Li             3.00     6.94100     Li( 1.00)

     Starting magnetic structure 
     atomic species   magnetization
        F            0.700
        Li           0.000

     No symmetry found



   Cartesian axes

     site n.     atom                  positions (alat units)
         1           Li  tau(   1) = (   0.0000000   0.0000000   0.0000000  )
         2           F   tau(   2) = (   0.5773503   0.4082483   1.0000000  )

     number of k points=   612  Marzari-Vanderbilt smearing, width (Ry)=  0.0050

     Number of k-points >= 100: set verbosity='high' to print them.

     Dense  grid:    28571 G-vectors     FFT dimensions: (  45,  45,  45)

     Smooth grid:    15593 G-vectors     FFT dimensions: (  36,  36,  36)

     Estimated max dynamical RAM per process >      40.41 MB

     Estimated total dynamical RAM >     646.49 MB
     Generating pointlists ...
     new r_m :   0.2917 (alat units)  1.5915 (a.u.) for type    1
     new r_m :   0.2917 (alat units)  1.5915 (a.u.) for type    2

     Initial potential from superposition of free atoms

     starting charge    9.99539, renormalised to   10.00000
     Starting wfcs are    9 randomized atomic wfcs +    7 random wfcs
     Checking if some PAW data can be deallocated... 

     total cpu time spent up to now is        4.0 secs

     Self-consistent Calculation

     iteration #  1     ecut=   100.00 Ry     beta= 0.70
     Davidson diagonalization with overlap
     ethr =  1.00E-02,  avg # of iterations =  5.1

     total cpu time spent up to now is       21.6 secs

     total energy              =     -74.57051817 Ry
     Harris-Foulkes estimate   =     -73.99979100 Ry
     estimated scf accuracy    <       0.60971489 Ry

     total magnetization       =     0.00 Bohr mag/cell
     absolute magnetization    =     0.79 Bohr mag/cell

     iteration #  2     ecut=   100.00 Ry     beta= 0.70
     Davidson diagonalization with overlap
     ethr =  6.10E-03,  avg # of iterations =  1.0

     total cpu time spent up to now is       29.1 secs

     total energy              =     -74.66390891 Ry
     Harris-Foulkes estimate   =     -74.61301560 Ry
     estimated scf accuracy    <       0.09885133 Ry

     total magnetization       =     0.00 Bohr mag/cell
     absolute magnetization    =     0.38 Bohr mag/cell

     iteration #  3     ecut=   100.00 Ry     beta= 0.70
     Davidson diagonalization with overlap
     ethr =  9.89E-04,  avg # of iterations =  1.6

     total cpu time spent up to now is       37.5 secs

     total energy              =     -74.67663791 Ry
     Harris-Foulkes estimate   =     -74.69459587 Ry
     estimated scf accuracy    <       0.04937877 Ry

     total magnetization       =    -0.00 Bohr mag/cell
     absolute magnetization    =     0.13 Bohr mag/cell

     iteration #  4     ecut=   100.00 Ry     beta= 0.70
     Davidson diagonalization with overlap
     ethr =  4.94E-04,  avg # of iterations =  1.3

     total cpu time spent up to now is       45.3 secs

     total energy              =     -74.68744684 Ry
     Harris-Foulkes estimate   =     -74.68700136 Ry
     estimated scf accuracy    <       0.00041193 Ry

     total magnetization       =    -0.00 Bohr mag/cell
     absolute magnetization    =     0.04 Bohr mag/cell

     iteration #  5     ecut=   100.00 Ry     beta= 0.70
     Davidson diagonalization with overlap
     ethr =  4.12E-06,  avg # of iterations =  3.0

     total cpu time spent up to now is       56.2 secs

     total energy              =     -74.68767331 Ry
     Harris-Foulkes estimate   =     -74.68767915 Ry
     estimated scf accuracy    <       0.00003913 Ry

     total magnetization       =     0.00 Bohr mag/cell
     absolute magnetization    =     0.01 Bohr mag/cell

     iteration #  6     ecut=   100.00 Ry     beta= 0.70
     Davidson diagonalization with overlap
     ethr =  3.91E-07,  avg # of iterations =  1.8

     total cpu time spent up to now is       65.1 secs

     total energy              =     -74.68768429 Ry
     Harris-Foulkes estimate   =     -74.68768413 Ry
     estimated scf accuracy    <       0.00000006 Ry

     total magnetization       =     0.00 Bohr mag/cell
     absolute magnetization    =     0.00 Bohr mag/cell

     iteration #  7     ecut=   100.00 Ry     beta= 0.70
     Davidson diagonalization with overlap
     ethr =  5.76E-10,  avg # of iterations =  3.5

     Magnetic moment per site:
     atom:    1    charge:    2.1462    magn:    0.0000    constr:    0.0000
     atom:    2    charge:    6.6175    magn:   -0.0000    constr:    0.0000

     total cpu time spent up to now is       76.9 secs

     End of self-consistent calculation

     Number of k-points >= 100: set verbosity='high' to print the bands.

     the Fermi energy is     2.5027 ev

!    total energy              =     -74.68768435 Ry
     Harris-Foulkes estimate   =     -74.68768435 Ry
     estimated scf accuracy    <          2.3E-09 Ry

     total all-electron energy =      -215.100417 Ry

     The total energy is the sum of the following terms:

     one-electron contribution =     -27.99104394 Ry
     hartree contribution      =      18.16613142 Ry
     xc contribution           =     -13.37688572 Ry
     ewald contribution        =     -40.39245525 Ry
     one-center paw contrib.   =     -11.09343086 Ry
     smearing contrib. (-TS)   =      -0.00000000 Ry

     total magnetization       =    -0.00 Bohr mag/cell
     absolute magnetization    =     0.00 Bohr mag/cell

     convergence has been achieved in   7 iterations

     Writing output data file LiF.save/

     init_run     :      2.91s CPU      3.05s WALL (       1 calls)
     electrons    :     70.91s CPU     72.93s WALL (       1 calls)

     Called by init_run:
     wfcinit      :      2.76s CPU      2.88s WALL (       1 calls)
     potinit      :      0.06s CPU      0.07s WALL (       1 calls)
     hinit0       :      0.08s CPU      0.09s WALL (       1 calls)

     Called by electrons:
     c_bands      :     61.15s CPU     62.80s WALL (       7 calls)
     sum_band     :      9.42s CPU      9.72s WALL (       7 calls)
     v_of_rho     :      0.12s CPU      0.12s WALL (       8 calls)
     newd         :      0.02s CPU      0.01s WALL (       8 calls)
     PAW_pot      :      0.25s CPU      0.31s WALL (       8 calls)
     mix_rho      :      0.00s CPU      0.01s WALL (       7 calls)

     Called by c_bands:
     init_us_2    :      0.65s CPU      0.79s WALL (   18360 calls)
     cegterg      :     60.33s CPU     61.87s WALL (    8568 calls)

     Called by sum_band:
     sum_band:bec :      0.02s CPU      0.03s WALL (    8568 calls)
     addusdens    :      0.02s CPU      0.02s WALL (       7 calls)

     Called by *egterg:
     h_psi        :     48.28s CPU     47.14s WALL (   31065 calls)
     s_psi        :      0.24s CPU      0.38s WALL (   31065 calls)
     g_psi        :      0.13s CPU      0.21s WALL (   21273 calls)
     cdiaghg      :     11.21s CPU     13.08s WALL (   29841 calls)

     Called by h_psi:
     h_psi:pot    :     48.22s CPU     47.03s WALL (   31065 calls)
     h_psi:calbec :      0.43s CPU      0.76s WALL (   31065 calls)
     vloc_psi     :     47.55s CPU     45.79s WALL (   31065 calls)
     add_vuspsi   :      0.22s CPU      0.42s WALL (   31065 calls)

     General routines
     calbec       :      0.57s CPU      0.95s WALL (   39633 calls)
     fft          :      0.03s CPU      0.03s WALL (     196 calls)
     ffts         :      0.00s CPU      0.00s WALL (      30 calls)
     fftw         :     53.82s CPU     50.50s WALL (  877228 calls)
     interpolate  :      0.00s CPU      0.00s WALL (      16 calls)

     Parallel routines
     fft_scatt_xy :      3.42s CPU      5.60s WALL (  877454 calls)
     fft_scatt_yz :     35.08s CPU     21.78s WALL (  877454 calls)

     PWSCF        :  1m15.99s CPU     1m20.62s WALL


   This run was terminated on:  11:13:31  30Aug2020            

=------------------------------------------------------------------------------=
   JOB DONE.
=------------------------------------------------------------------------------=
