 vasp.5.4.4.18Apr17-6-g9f103f2a35 (build Sep 04 2018 22:01:38) complex          
  
 executed on             LinuxIFC date 2020.02.24  00:10:50
 serial version


--------------------------------------------------------------------------------------------------------


 INCAR:
 POTCAR:    PAW Sr_sv 10Feb1998                   
 POTCAR:    PAW V 07Aug2001                       
 POTCAR:    PAW O 22Mar2012                       
 POTCAR:    PAW Sr_sv 10Feb1998                   
   VRHFIN =Sr: 3s3p4s                                                           
   LEXCH  = CA                                                                  
   EATOM  =   845.5689 eV,   62.1476 Ry                                         
                                                                                
   TITEL  = PAW Sr_sv 10Feb1998                                                 
   LULTRA =        F    use ultrasoft PP ?                                      
   IUNSCR =        1    unscreen: 0-lin 1-nonlin 2-no                           
   RPACOR =    2.200    partial core radius                                     
   POMASS =   87.620; ZVAL   =   10.000    mass and valenz                      
   RCORE  =    2.500    outmost cutoff radius                                   
   RWIGS  =    4.040; RWIGS  =    2.138    wigner-seitz radius (au A)           
   ENMAX  =  226.327; ENMIN  =  169.745 eV                                      
   RCLOC  =    2.201    cutoff for local pot                                    
   LCOR   =        T    correct aug charges                                     
   LPAW   =        T    paw PP                                                  
   EAUG   =  366.804                                                            
   DEXC   =    0.000                                                            
   RMAX   =    2.547    core radius for proj-oper                               
   RAUG   =    1.300    factor for augmentation sphere                          
   RDEP   =    2.562    radius for radial grids                                 
   RDEPT  =    2.145    core radius for aug-charge                              
                                                                                
   Atomic configuration                                                         
   10 entries                                                                   
     n  l   j            E        occ.                                          
     1  0  0.50    -15851.8828   2.0000                                         
     2  0  0.50     -2148.9480   2.0000                                         
     2  1  1.50     -1912.9353   6.0000                                         
     3  0  0.50      -331.8462   2.0000                                         
     3  1  1.50      -255.3856   6.0000                                         
     3  2  2.50      -128.2784  10.0000                                         
     4  0  0.50       -40.8303   2.0000                                         
     5  0  0.50        -3.6422   1.9990                                         
     4  1  1.50       -22.8493   6.0000                                         
     4  2  1.50        -1.4198   0.0010                                         
   Description                                                                  
     l       E           TYP  RCUT    TYP  RCUT                                 
     0    -40.8303494     23  2.500                                             
     0     -3.6421860     23  2.500                                             
     1    -22.8492718     23  2.500                                             
     1    -24.2098544     23  2.500                                             
     2     -1.4197899     23  2.500                                             
     2      0.0045700     23  2.500                                             
  local pseudopotential read in
  partial core-charges read in
  partial kinetic energy density read in
  atomic valenz-charges read in
  non local Contribution for L=           0  read in
    real space projection operators read in
  non local Contribution for L=           0  read in
    real space projection operators read in
  non local Contribution for L=           1  read in
    real space projection operators read in
  non local Contribution for L=           1  read in
    real space projection operators read in
  non local Contribution for L=           2  read in
    real space projection operators read in
  non local Contribution for L=           2  read in
    real space projection operators read in
    PAW grid and wavefunctions read in
 
   number of l-projection  operators is LMAX  =           6
   number of lm-projection operators is LMMAX =          18
 
 POTCAR:    PAW V 07Aug2001                       
   VRHFIN =V: d4 s1                                                             
   LEXCH  = CA                                                                  
   EATOM  =   172.4520 eV,   12.6749 Ry                                         
                                                                                
   TITEL  = PAW V 07Aug2001                                                     
   LULTRA =        F    use ultrasoft PP ?                                      
   IUNSCR =        1    unscreen: 0-lin 1-nonlin 2-no                           
   RPACOR =    2.000    partial core radius                                     
   POMASS =   50.941; ZVAL   =    5.000    mass and valenz                      
   RCORE  =    2.700    outmost cutoff radius                                   
   RWIGS  =    2.500; RWIGS  =    1.323    wigner-seitz radius (au A)           
   ENMAX  =  192.706; ENMIN  =  144.529 eV                                      
   RCLOC  =    1.779    cutoff for local pot                                    
   LCOR   =        T    correct aug charges                                     
   LPAW   =        T    paw PP                                                  
   EAUG   =  358.662                                                            
   DEXC   =    0.000                                                            
   RMAX   =    2.768    core radius for proj-oper                               
   RAUG   =    1.300    factor for augmentation sphere                          
   RDEP   =    2.762    radius for radial grids                                 
   RDEPT  =    2.240    core radius for aug-charge                              
                                                                                
   Atomic configuration                                                         
    9 entries                                                                   
     n  l   j            E        occ.                                          
     1  0  0.50     -5334.6266   2.0000                                         
     2  0  0.50      -595.8619   2.0000                                         
     2  1  1.50      -498.2253   6.0000                                         
     3  0  0.50       -66.0397   2.0000                                         
     3  1  1.50       -40.3979   6.0000                                         
     3  2  2.50        -2.6339   4.0000                                         
     4  0  0.50        -4.0392   1.0000                                         
     4  1  0.50        -4.0817   0.0000                                         
     4  3  2.50        -1.3606   0.0000                                         
   Description                                                                  
     l       E           TYP  RCUT    TYP  RCUT                                 
     2     -2.6338511     23  2.700                                             
     2     -3.9944337     23  2.700                                             
     0     -4.0392463     23  2.700                                             
     0     27.2116520     23  2.700                                             
     1     -4.0817478     23  2.700                                             
     1     27.2116520     23  2.700                                             
  local pseudopotential read in
  partial core-charges read in
  partial kinetic energy density read in
  atomic valenz-charges read in
  non local Contribution for L=           2  read in
    real space projection operators read in
  non local Contribution for L=           2  read in
    real space projection operators read in
  non local Contribution for L=           0  read in
    real space projection operators read in
  non local Contribution for L=           0  read in
    real space projection operators read in
  non local Contribution for L=           1  read in
    real space projection operators read in
  non local Contribution for L=           1  read in
    real space projection operators read in
    PAW grid and wavefunctions read in
 
   number of l-projection  operators is LMAX  =           6
   number of lm-projection operators is LMMAX =          18
 
 POTCAR:    PAW O 22Mar2012                       
   VRHFIN =O: s2p4                                                              
   LEXCH  = CA                                                                  
   EATOM  =   431.4380 eV,   31.7098 Ry                                         
                                                                                
   TITEL  = PAW O 22Mar2012                                                     
   LULTRA =        F    use ultrasoft PP ?                                      
   IUNSCR =        1    unscreen: 0-lin 1-nonlin 2-no                           
   RPACOR =    1.200    partial core radius                                     
   POMASS =   16.000; ZVAL   =    6.000    mass and valenz                      
   RCORE  =    1.520    outmost cutoff radius                                   
   RWIGS  =    1.550; RWIGS  =    0.820    wigner-seitz radius (au A)           
   ENMAX  =  400.000; ENMIN  =  300.000 eV                                      
   ICORE  =        2    local potential                                         
   LCOR   =        T    correct aug charges                                     
   LPAW   =        T    paw PP                                                  
   EAUG   =  605.392                                                            
   DEXC   =    0.000                                                            
   RMAX   =    1.553    core radius for proj-oper                               
   RAUG   =    1.300    factor for augmentation sphere                          
   RDEP   =    1.550    radius for radial grids                                 
   RDEPT  =    1.329    core radius for aug-charge                              
                                                                                
   Atomic configuration                                                         
    4 entries                                                                   
     n  l   j            E        occ.                                          
     1  0  0.50      -510.4605   2.0000                                         
     2  0  0.50       -23.7367   2.0000                                         
     2  1  0.50        -9.1995   4.0000                                         
     3  2  1.50        -9.5241   0.0000                                         
   Description                                                                  
     l       E           TYP  RCUT    TYP  RCUT                                 
     0    -23.7366993     23  1.200                                             
     0     -9.5240782     23  1.200                                             
     1     -9.1994509     23  1.520                                             
     1      8.1634956     23  1.520                                             
     2     -9.5240782      7  1.500                                             
  local pseudopotential read in
  partial core-charges read in
  partial kinetic energy density read in
  kinetic energy density of atom read in
  atomic valenz-charges read in
  non local Contribution for L=           0  read in
    real space projection operators read in
  non local Contribution for L=           0  read in
    real space projection operators read in
  non local Contribution for L=           1  read in
    real space projection operators read in
  non local Contribution for L=           1  read in
    real space projection operators read in
    PAW grid and wavefunctions read in
 
   number of l-projection  operators is LMAX  =           4
   number of lm-projection operators is LMMAX =           8
 

 ----------------------------------------------------------------------------- 
|                                                                             |
|  ADVICE TO THIS USER RUNNING 'VASP/VAMP'   (HEAR YOUR MASTER'S VOICE ...):  |
|                                                                             |
|      You enforced a specific xc-type in the INCAR file,                     |
|      a different type was found on the POTCAR file                          |
|          I HOPE YOU KNOW, WHAT YOU ARE  DOING                               |
|                                                                             |
 ----------------------------------------------------------------------------- 

  PAW Sr_sv 10Feb1998                   :
 energy of atom  1       EATOM= -845.5689
 kinetic energy error for atom=    0.0006 (will be added to EATOM!!)
  PAW V 07Aug2001                       :
 energy of atom  2       EATOM= -172.4520
 kinetic energy error for atom=    0.0002 (will be added to EATOM!!)
  PAW O 22Mar2012                       :
 energy of atom  3       EATOM= -431.4380
 kinetic energy error for atom=    0.0165 (will be added to EATOM!!)
 
 
 POSCAR: Sr V O                                  
  positions in direct lattice
  No initial velocities read in
 exchange correlation table for  LEXCH =       14
   RHO(1)=    0.500       N(1)  =     2000
   RHO(2)=  100.500       N(2)  =     4000
 


--------------------------------------------------------------------------------------------------------


 ion  position               nearest neighbor table
   1  0.000  0.000  0.000-   3 2.72   4 2.72   5 2.72   4 2.72   5 2.72   3 2.72   5 2.72   5 2.72
                             3 2.72   4 2.72   4 2.72   3 2.72   2 3.33   2 3.33   2 3.33   2 3.33
   2  0.500  0.500  0.500-   3 1.92   4 1.92   5 1.92   3 1.92   4 1.92   5 1.92   1 3.33   1 3.33
                             1 3.33   1 3.33   1 3.33   1 3.33   1 3.33   1 3.33
   3  0.500  0.500  0.000-   2 1.92   2 1.92   1 2.72   1 2.72   1 2.72   1 2.72
   4  0.500  0.000  0.500-   2 1.92   2 1.92   1 2.72   1 2.72   1 2.72   1 2.72
   5  0.000  0.500  0.500-   2 1.92   2 1.92   1 2.72   1 2.72   1 2.72   1 2.72
 
  LATTYP: Found a simple cubic cell.
 ALAT       =     3.8465200000
  
  Lattice vectors:
  
 A1 = (   3.8465200000,   0.0000000000,   0.0000000000)
 A2 = (   0.0000000000,   3.8465200000,   0.0000000000)
 A3 = (   0.0000000000,   0.0000000000,   3.8465200000)


Analysis of symmetry for initial positions (statically):
=====================================================================
 Subroutine PRICEL returns:
 Original cell was already a primitive cell.
 

 Routine SETGRP: Setting up the symmetry group for a 
 simple cubic supercell.


 Subroutine GETGRP returns: Found 48 space group operations
 (whereof 48 operations were pure point group operations)
 out of a pool of 48 trial point group operations.


The static configuration has the point symmetry O_h .


Analysis of symmetry for dynamics (positions and initial velocities):
=====================================================================
 Subroutine PRICEL returns:
 Original cell was already a primitive cell.
 

 Routine SETGRP: Setting up the symmetry group for a 
 simple cubic supercell.


 Subroutine GETGRP returns: Found 48 space group operations
 (whereof 48 operations were pure point group operations)
 out of a pool of 48 trial point group operations.


The dynamic configuration has the point symmetry O_h .


 Subroutine INISYM returns: Found 48 space group operations
 (whereof 48 operations are pure point group operations),
 and found     1 'primitive' translations

 
 
 KPOINTS: CUB (simple cubic) G-X-M-G-R-X M-R      
  interpolating k-points between supplied coordinates
  k-points in reciprocal lattice
Space group operators:
 irot       det(A)        alpha          n_x          n_y          n_z        tau_x        tau_y        tau_z
    1     1.000000     0.000000     1.000000     0.000000     0.000000     0.000000     0.000000     0.000000
    2    -1.000000     0.000000     1.000000     0.000000     0.000000     0.000000     0.000000     0.000000
    3     1.000000   120.000000    -0.577350    -0.577350    -0.577350     0.000000     0.000000     0.000000
    4    -1.000000   120.000000    -0.577350    -0.577350    -0.577350     0.000000     0.000000     0.000000
    5     1.000000   120.000000     0.577350     0.577350     0.577350     0.000000     0.000000     0.000000
    6    -1.000000   120.000000     0.577350     0.577350     0.577350     0.000000     0.000000     0.000000
    7     1.000000    90.000000     0.000000     0.000000    -1.000000     0.000000     0.000000     0.000000
    8    -1.000000    90.000000     0.000000     0.000000    -1.000000     0.000000     0.000000     0.000000
    9     1.000000   180.000000     0.000000     0.707107     0.707107     0.000000     0.000000     0.000000
   10    -1.000000   180.000000     0.000000     0.707107     0.707107     0.000000     0.000000     0.000000
   11     1.000000    90.000000     0.000000     1.000000     0.000000     0.000000     0.000000     0.000000
   12    -1.000000    90.000000     0.000000     1.000000     0.000000     0.000000     0.000000     0.000000
   13     1.000000   180.000000     0.000000     0.000000     1.000000     0.000000     0.000000     0.000000
   14    -1.000000   180.000000     0.000000     0.000000     1.000000     0.000000     0.000000     0.000000
   15     1.000000   120.000000    -0.577350     0.577350     0.577350     0.000000     0.000000     0.000000
   16    -1.000000   120.000000    -0.577350     0.577350     0.577350     0.000000     0.000000     0.000000
   17     1.000000   120.000000    -0.577350     0.577350    -0.577350     0.000000     0.000000     0.000000
   18    -1.000000   120.000000    -0.577350     0.577350    -0.577350     0.000000     0.000000     0.000000
   19     1.000000    90.000000     0.000000     0.000000     1.000000     0.000000     0.000000     0.000000
   20    -1.000000    90.000000     0.000000     0.000000     1.000000     0.000000     0.000000     0.000000
   21     1.000000    90.000000    -1.000000     0.000000     0.000000     0.000000     0.000000     0.000000
   22    -1.000000    90.000000    -1.000000     0.000000     0.000000     0.000000     0.000000     0.000000
   23     1.000000   180.000000     0.707107     0.000000     0.707107     0.000000     0.000000     0.000000
   24    -1.000000   180.000000     0.707107     0.000000     0.707107     0.000000     0.000000     0.000000
   25     1.000000   120.000000     0.577350    -0.577350     0.577350     0.000000     0.000000     0.000000
   26    -1.000000   120.000000     0.577350    -0.577350     0.577350     0.000000     0.000000     0.000000
   27     1.000000   120.000000    -0.577350    -0.577350     0.577350     0.000000     0.000000     0.000000
   28    -1.000000   120.000000    -0.577350    -0.577350     0.577350     0.000000     0.000000     0.000000
   29     1.000000   180.000000     1.000000     0.000000     0.000000     0.000000     0.000000     0.000000
   30    -1.000000   180.000000     1.000000     0.000000     0.000000     0.000000     0.000000     0.000000
   31     1.000000    90.000000     0.000000    -1.000000     0.000000     0.000000     0.000000     0.000000
   32    -1.000000    90.000000     0.000000    -1.000000     0.000000     0.000000     0.000000     0.000000
   33     1.000000   180.000000     0.707107     0.707107     0.000000     0.000000     0.000000     0.000000
   34    -1.000000   180.000000     0.707107     0.707107     0.000000     0.000000     0.000000     0.000000
   35     1.000000    90.000000     1.000000     0.000000     0.000000     0.000000     0.000000     0.000000
   36    -1.000000    90.000000     1.000000     0.000000     0.000000     0.000000     0.000000     0.000000
   37     1.000000   120.000000     0.577350    -0.577350    -0.577350     0.000000     0.000000     0.000000
   38    -1.000000   120.000000     0.577350    -0.577350    -0.577350     0.000000     0.000000     0.000000
   39     1.000000   180.000000     0.000000     1.000000     0.000000     0.000000     0.000000     0.000000
   40    -1.000000   180.000000     0.000000     1.000000     0.000000     0.000000     0.000000     0.000000
   41     1.000000   120.000000     0.577350     0.577350    -0.577350     0.000000     0.000000     0.000000
   42    -1.000000   120.000000     0.577350     0.577350    -0.577350     0.000000     0.000000     0.000000
   43     1.000000   180.000000     0.000000    -0.707107     0.707107     0.000000     0.000000     0.000000
   44    -1.000000   180.000000     0.000000    -0.707107     0.707107     0.000000     0.000000     0.000000
   45     1.000000   180.000000     0.707107    -0.707107     0.000000     0.000000     0.000000     0.000000
   46    -1.000000   180.000000     0.707107    -0.707107     0.000000     0.000000     0.000000     0.000000
   47     1.000000   180.000000     0.707107     0.000000    -0.707107     0.000000     0.000000     0.000000
   48    -1.000000   180.000000     0.707107     0.000000    -0.707107     0.000000     0.000000     0.000000


--------------------------------------------------------------------------------------------------------




 Dimension of arrays:
   k-points           NKPTS =    320   k-points in BZ     NKDIM =    320   number of bands    NBANDS=     46
   number of dos      NEDOS =    301   number of ions     NIONS =      5
   non local maximal  LDIM  =      6   non local SUM 2l+1 LMDIM =     18
   total plane-waves  NPLWV =  13824
   max r-space proj   IRMAX =      1   max aug-charges    IRDMAX= 118030
   dimension x,y,z NGX =    24 NGY =   24 NGZ =   24
   dimension x,y,z NGXF=    48 NGYF=   48 NGZF=   48
   support grid    NGXF=    96 NGYF=   96 NGZF=   96
   ions per type =               1   1   3
   NGX,Y,Z   is equivalent  to a cutoff of  10.37, 10.37, 10.37 a.u.
   NGXF,Y,Z  is equivalent  to a cutoff of  20.75, 20.75, 20.75 a.u.

 SYSTEM =  SrVO3 	                                 
 POSCAR =  Sr V O                                  

 Startparameter for this run:
   NWRITE =      2    write-flag & timer
   PREC   = normal    normal or accurate (medium, high low for compatibility)
   ISTART =      1    job   : 0-new  1-cont  2-samecut
   ICHARG =     11    charge: 1-file 2-atom 10-const
   ISPIN  =      1    spin polarized calculation?
   LNONCOLLINEAR =      F non collinear calculations
   LSORBIT =      F    spin-orbit coupling
   INIWAV =      1    electr: 0-lowe 1-rand  2-diag
   LASPH  =      F    aspherical Exc in radial PAW
   METAGGA=      F    non-selfconsistent MetaGGA calc.

 Electronic Relaxation 1
   ENCUT  =  600.0 eV  44.10 Ry    6.64 a.u.   7.68  7.68  7.68*2*pi/ulx,y,z
   ENINI  =  600.0     initial cutoff
   ENAUG  =  605.4 eV  augmentation charge cutoff
   NELM   =     60;   NELMIN=  2; NELMDL=  0     # of ELM steps 
   EDIFF  = 0.1E-03   stopping-criterion for ELM
   LREAL  =      F    real-space projection
   NLSPLINE    = F    spline interpolate recip. space projectors
   LCOMPAT=      F    compatible to vasp.4.4
   GGA_COMPAT  = T    GGA compatible to vasp.4.4-vasp.4.6
   LMAXPAW     = -100 max onsite density
   LMAXMIX     =    4 max onsite mixed and CHGCAR
   VOSKOWN=      0    Vosko Wilk Nusair interpolation
   ROPT   =    0.00000   0.00000   0.00000
 Ionic relaxation
   EDIFFG = 0.1E-02   stopping-criterion for IOM
   NSW    =      0    number of steps for IOM
   NBLOCK =      1;   KBLOCK =      1    inner block; outer block 
   IBRION =     -1    ionic relax: 0-MD 1-quasi-New 2-CG
   NFREE  =      0    steps in history (QN), initial steepest desc. (CG)
   ISIF   =      2    stress and relaxation
   IWAVPR =      0    prediction:  0-non 1-charg 2-wave 3-comb
   ISYM   =      2    0-nonsym 1-usesym 2-fastsym
   LCORR  =      T    Harris-Foulkes like correction to forces

   POTIM  = 0.5000    time-step for ionic-motion
   TEIN   =    0.0    initial temperature
   TEBEG  =    0.0;   TEEND  =   0.0 temperature during run
   SMASS  =  -3.00    Nose mass-parameter (am)
   estimated Nose-frequenzy (Omega)   =  0.10E-29 period in steps =****** mass=  -0.338E-27a.u.
   SCALEE = 1.0000    scale energy and forces
   NPACO  =    256;   APACO  = 16.0  distance and # of slots for P.C.
   PSTRESS=    0.0 pullay stress

  Mass of Ions in am
   POMASS =  87.62 50.94 16.00
  Ionic Valenz
   ZVAL   =  10.00  5.00  6.00
  Atomic Wigner-Seitz radii
   RWIGS  =  -1.00 -1.00 -1.00
  virtual crystal weights 
   VCA    =   1.00  1.00  1.00
   NELECT =      33.0000    total number of electrons
   NUPDOWN=      -1.0000    fix difference up-down

 DOS related values:
   EMIN   =  10.00;   EMAX   =-10.00  energy-range for DOS
   EFERMI =   0.00
   ISMEAR =     0;   SIGMA  =   0.20  broadening in eV -4-tet -1-fermi 0-gaus

 Electronic relaxation 2 (details)
   IALGO  =     48    algorithm
   LDIAG  =      T    sub-space diagonalisation (order eigenvalues)
   LSUBROT=      F    optimize rotation matrix (better conditioning)
   TURBO    =      0    0=normal 1=particle mesh
   IRESTART =      0    0=no restart 2=restart with 2 vectors
   NREBOOT  =      0    no. of reboots
   NMIN     =      0    reboot dimension
   EREF     =   0.00    reference energy to select bands
   IMIX   =      4    mixing-type and parameters
     AMIX     =   0.40;   BMIX     =  1.00
     AMIX_MAG =   1.60;   BMIX_MAG =  1.00
     AMIN     =   0.10
     WC   =   100.;   INIMIX=   1;  MIXPRE=   1;  MAXMIX= -45

 Intra band minimization:
   WEIMIN = 0.0000     energy-eigenvalue tresh-hold
   EBREAK =  0.54E-06  absolut break condition
   DEPER  =   0.30     relativ break condition  

   TIME   =   0.40     timestep for ELM

  volume/ion in A,a.u.               =      11.38        76.81
  Fermi-wavevector in a.u.,A,eV,Ry     =   1.365143  2.579746 25.356027  1.863615
  Thomas-Fermi vector in A             =   2.491397
 
 Write flags
   LWAVE        =      T    write WAVECAR
   LDOWNSAMPLE  =      F    k-point downsampling of WAVECAR
   LCHARG       =      T    write CHGCAR
   LVTOT        =      F    write LOCPOT, total local potential
   LVHAR        =      F    write LOCPOT, Hartree potential only
   LELF         =      F    write electronic localiz. function (ELF)
   LORBIT       =     11    0 simple, 1 ext, 2 COOP (PROOUT), +10 PAW based schemes


 Dipole corrections
   LMONO  =      F    monopole corrections only (constant potential shift)
   LDIPOL =      F    correct potential (dipole corrections)
   IDIPOL =      0    1-x, 2-y, 3-z, 4-all directions 
   EPSILON=  1.0000000 bulk dielectric constant

 Exchange correlation treatment:
   GGA     =    PS    GGA type
   LEXCH   =    14    internal setting for exchange type
   VOSKOWN=      0    Vosko Wilk Nusair interpolation
   LHFCALC =     F    Hartree Fock is set to
   LHFONE  =     F    Hartree Fock one center treatment
   AEXX    =    0.0000 exact exchange contribution

 Linear response parameters
   LEPSILON=     F    determine dielectric tensor
   LRPA    =     F    only Hartree local field effects (RPA)
   LNABLA  =     F    use nabla operator in PAW spheres
   LVEL    =     F    velocity operator in full k-point grid
   LINTERFAST=   F  fast interpolation
   KINTER  =     0    interpolate to denser k-point grid
   CSHIFT  =0.1000    complex shift for real part using Kramers Kronig
   OMEGAMAX=  -1.0    maximum frequency
   DEG_THRESHOLD= 0.2000000E-02 threshold for treating states as degnerate
   RTIME   =   -0.100 relaxation time in fs
  (WPLASMAI=    0.000 imaginary part of plasma frequency in eV, 0.658/RTIME)
   DFIELD  = 0.0000000 0.0000000 0.0000000 field for delta impulse in time
 
 Orbital magnetization related:
   ORBITALMAG=     F  switch on orbital magnetization
   LCHIMAG   =     F  perturbation theory with respect to B field
   DQ        =  0.001000  dq finite difference perturbation B field
   LLRAUG    =     F  two centre corrections for induced B field



--------------------------------------------------------------------------------------------------------


 Static calculation
 charge density and potential remain constant during run
 non-spin polarized calculation
 RMM-DIIS sequential band-by-band
 perform sub-space diagonalisation
    before iterative eigenvector-optimisation
 no mixing
 using additional bands           29
 reciprocal scheme for non local part
 use partial core corrections
 calculate Harris-corrections to forces 
   (improved forces if not selfconsistent)
 use gradient corrections 
 WARNING: stress and forces are not correct
  (second derivative of E(xc) not defined)
 use of overlap-Matrix (Vanderbilt PP)
 Gauss-broadening in eV      SIGMA  =   0.20


--------------------------------------------------------------------------------------------------------


  energy-cutoff  :      600.00
  volume of cell :       56.91
      direct lattice vectors                 reciprocal lattice vectors
     3.846520000  0.000000000  0.000000000     0.259975250  0.000000000  0.000000000
     0.000000000  3.846520000  0.000000000     0.000000000  0.259975250  0.000000000
     0.000000000  0.000000000  3.846520000     0.000000000  0.000000000  0.259975250

  length of vectors
     3.846520000  3.846520000  3.846520000     0.259975250  0.259975250  0.259975250


 
 old parameters found on file WAVECAR:
  energy-cutoff  :      600.00
  volume of cell :       56.91
      direct lattice vectors                 reciprocal lattice vectors
     3.846520000  0.000000000  0.000000000     0.259975250  0.000000000  0.000000000
     0.000000000  3.846520000  0.000000000     0.000000000  0.259975250  0.000000000
     0.000000000  0.000000000  3.846520000     0.000000000  0.000000000  0.259975250

  length of vectors

 
 k-points in units of 2pi/SCALE and weight: CUB (simple cubic) G-X-M-G-R-X M-R      
   0.00000000  0.00000000  0.00000000       0.003
   0.00000000  0.01282051  0.00000000       0.003
   0.00000000  0.02564103  0.00000000       0.003
   0.00000000  0.03846154  0.00000000       0.003
   0.00000000  0.05128205  0.00000000       0.003
   0.00000000  0.06410256  0.00000000       0.003
   0.00000000  0.07692308  0.00000000       0.003
   0.00000000  0.08974359  0.00000000       0.003
   0.00000000  0.10256410  0.00000000       0.003
   0.00000000  0.11538462  0.00000000       0.003
   0.00000000  0.12820513  0.00000000       0.003
   0.00000000  0.14102564  0.00000000       0.003
   0.00000000  0.15384615  0.00000000       0.003
   0.00000000  0.16666667  0.00000000       0.003
   0.00000000  0.17948718  0.00000000       0.003
   0.00000000  0.19230769  0.00000000       0.003
   0.00000000  0.20512821  0.00000000       0.003
   0.00000000  0.21794872  0.00000000       0.003
   0.00000000  0.23076923  0.00000000       0.003
   0.00000000  0.24358974  0.00000000       0.003
   0.00000000  0.25641026  0.00000000       0.003
   0.00000000  0.26923077  0.00000000       0.003
   0.00000000  0.28205128  0.00000000       0.003
   0.00000000  0.29487179  0.00000000       0.003
   0.00000000  0.30769231  0.00000000       0.003
   0.00000000  0.32051282  0.00000000       0.003
   0.00000000  0.33333333  0.00000000       0.003
   0.00000000  0.34615385  0.00000000       0.003
   0.00000000  0.35897436  0.00000000       0.003
   0.00000000  0.37179487  0.00000000       0.003
   0.00000000  0.38461538  0.00000000       0.003
   0.00000000  0.39743590  0.00000000       0.003
   0.00000000  0.41025641  0.00000000       0.003
   0.00000000  0.42307692  0.00000000       0.003
   0.00000000  0.43589744  0.00000000       0.003
   0.00000000  0.44871795  0.00000000       0.003
   0.00000000  0.46153846  0.00000000       0.003
   0.00000000  0.47435897  0.00000000       0.003
   0.00000000  0.48717949  0.00000000       0.003
   0.00000000  0.50000000  0.00000000       0.003
   0.00000000  0.50000000  0.00000000       0.003
   0.01282051  0.50000000  0.00000000       0.003
   0.02564103  0.50000000  0.00000000       0.003
   0.03846154  0.50000000  0.00000000       0.003
   0.05128205  0.50000000  0.00000000       0.003
   0.06410256  0.50000000  0.00000000       0.003
   0.07692308  0.50000000  0.00000000       0.003
   0.08974359  0.50000000  0.00000000       0.003
   0.10256410  0.50000000  0.00000000       0.003
   0.11538462  0.50000000  0.00000000       0.003
   0.12820513  0.50000000  0.00000000       0.003
   0.14102564  0.50000000  0.00000000       0.003
   0.15384615  0.50000000  0.00000000       0.003
   0.16666667  0.50000000  0.00000000       0.003
   0.17948718  0.50000000  0.00000000       0.003
   0.19230769  0.50000000  0.00000000       0.003
   0.20512821  0.50000000  0.00000000       0.003
   0.21794872  0.50000000  0.00000000       0.003
   0.23076923  0.50000000  0.00000000       0.003
   0.24358974  0.50000000  0.00000000       0.003
   0.25641026  0.50000000  0.00000000       0.003
   0.26923077  0.50000000  0.00000000       0.003
   0.28205128  0.50000000  0.00000000       0.003
   0.29487179  0.50000000  0.00000000       0.003
   0.30769231  0.50000000  0.00000000       0.003
   0.32051282  0.50000000  0.00000000       0.003
   0.33333333  0.50000000  0.00000000       0.003
   0.34615385  0.50000000  0.00000000       0.003
   0.35897436  0.50000000  0.00000000       0.003
   0.37179487  0.50000000  0.00000000       0.003
   0.38461538  0.50000000  0.00000000       0.003
   0.39743590  0.50000000  0.00000000       0.003
   0.41025641  0.50000000  0.00000000       0.003
   0.42307692  0.50000000  0.00000000       0.003
   0.43589744  0.50000000  0.00000000       0.003
   0.44871795  0.50000000  0.00000000       0.003
   0.46153846  0.50000000  0.00000000       0.003
   0.47435897  0.50000000  0.00000000       0.003
   0.48717949  0.50000000  0.00000000       0.003
   0.50000000  0.50000000  0.00000000       0.003
   0.50000000  0.50000000  0.00000000       0.003
   0.48717949  0.48717949  0.00000000       0.003
   0.47435897  0.47435897  0.00000000       0.003
   0.46153846  0.46153846  0.00000000       0.003
   0.44871795  0.44871795  0.00000000       0.003
   0.43589744  0.43589744  0.00000000       0.003
   0.42307692  0.42307692  0.00000000       0.003
   0.41025641  0.41025641  0.00000000       0.003
   0.39743590  0.39743590  0.00000000       0.003
   0.38461538  0.38461538  0.00000000       0.003
   0.37179487  0.37179487  0.00000000       0.003
   0.35897436  0.35897436  0.00000000       0.003
   0.34615385  0.34615385  0.00000000       0.003
   0.33333333  0.33333333  0.00000000       0.003
   0.32051282  0.32051282  0.00000000       0.003
   0.30769231  0.30769231  0.00000000       0.003
   0.29487179  0.29487179  0.00000000       0.003
   0.28205128  0.28205128  0.00000000       0.003
   0.26923077  0.26923077  0.00000000       0.003
   0.25641026  0.25641026  0.00000000       0.003
   0.24358974  0.24358974  0.00000000       0.003
   0.23076923  0.23076923  0.00000000       0.003
   0.21794872  0.21794872  0.00000000       0.003
   0.20512821  0.20512821  0.00000000       0.003
   0.19230769  0.19230769  0.00000000       0.003
   0.17948718  0.17948718  0.00000000       0.003
   0.16666667  0.16666667  0.00000000       0.003
   0.15384615  0.15384615  0.00000000       0.003
   0.14102564  0.14102564  0.00000000       0.003
   0.12820513  0.12820513  0.00000000       0.003
   0.11538462  0.11538462  0.00000000       0.003
   0.10256410  0.10256410  0.00000000       0.003
   0.08974359  0.08974359  0.00000000       0.003
   0.07692308  0.07692308  0.00000000       0.003
   0.06410256  0.06410256  0.00000000       0.003
   0.05128205  0.05128205  0.00000000       0.003
   0.03846154  0.03846154  0.00000000       0.003
   0.02564103  0.02564103  0.00000000       0.003
   0.01282051  0.01282051  0.00000000       0.003
   0.00000000  0.00000000  0.00000000       0.003
   0.00000000  0.00000000  0.00000000       0.003
   0.01282051  0.01282051  0.01282051       0.003
   0.02564103  0.02564103  0.02564103       0.003
   0.03846154  0.03846154  0.03846154       0.003
   0.05128205  0.05128205  0.05128205       0.003
   0.06410256  0.06410256  0.06410256       0.003
   0.07692308  0.07692308  0.07692308       0.003
   0.08974359  0.08974359  0.08974359       0.003
   0.10256410  0.10256410  0.10256410       0.003
   0.11538462  0.11538462  0.11538462       0.003
   0.12820513  0.12820513  0.12820513       0.003
   0.14102564  0.14102564  0.14102564       0.003
   0.15384615  0.15384615  0.15384615       0.003
   0.16666667  0.16666667  0.16666667       0.003
   0.17948718  0.17948718  0.17948718       0.003
   0.19230769  0.19230769  0.19230769       0.003
   0.20512821  0.20512821  0.20512821       0.003
   0.21794872  0.21794872  0.21794872       0.003
   0.23076923  0.23076923  0.23076923       0.003
   0.24358974  0.24358974  0.24358974       0.003
   0.25641026  0.25641026  0.25641026       0.003
   0.26923077  0.26923077  0.26923077       0.003
   0.28205128  0.28205128  0.28205128       0.003
   0.29487179  0.29487179  0.29487179       0.003
   0.30769231  0.30769231  0.30769231       0.003
   0.32051282  0.32051282  0.32051282       0.003
   0.33333333  0.33333333  0.33333333       0.003
   0.34615385  0.34615385  0.34615385       0.003
   0.35897436  0.35897436  0.35897436       0.003
   0.37179487  0.37179487  0.37179487       0.003
   0.38461538  0.38461538  0.38461538       0.003
   0.39743590  0.39743590  0.39743590       0.003
   0.41025641  0.41025641  0.41025641       0.003
   0.42307692  0.42307692  0.42307692       0.003
   0.43589744  0.43589744  0.43589744       0.003
   0.44871795  0.44871795  0.44871795       0.003
   0.46153846  0.46153846  0.46153846       0.003
   0.47435897  0.47435897  0.47435897       0.003
   0.48717949  0.48717949  0.48717949       0.003
   0.50000000  0.50000000  0.50000000       0.003
   0.50000000  0.50000000  0.50000000       0.003
   0.48717949  0.50000000  0.48717949       0.003
   0.47435897  0.50000000  0.47435897       0.003
   0.46153846  0.50000000  0.46153846       0.003
   0.44871795  0.50000000  0.44871795       0.003
   0.43589744  0.50000000  0.43589744       0.003
   0.42307692  0.50000000  0.42307692       0.003
   0.41025641  0.50000000  0.41025641       0.003
   0.39743590  0.50000000  0.39743590       0.003
   0.38461538  0.50000000  0.38461538       0.003
   0.37179487  0.50000000  0.37179487       0.003
   0.35897436  0.50000000  0.35897436       0.003
   0.34615385  0.50000000  0.34615385       0.003
   0.33333333  0.50000000  0.33333333       0.003
   0.32051282  0.50000000  0.32051282       0.003
   0.30769231  0.50000000  0.30769231       0.003
   0.29487179  0.50000000  0.29487179       0.003
   0.28205128  0.50000000  0.28205128       0.003
   0.26923077  0.50000000  0.26923077       0.003
   0.25641026  0.50000000  0.25641026       0.003
   0.24358974  0.50000000  0.24358974       0.003
   0.23076923  0.50000000  0.23076923       0.003
   0.21794872  0.50000000  0.21794872       0.003
   0.20512821  0.50000000  0.20512821       0.003
   0.19230769  0.50000000  0.19230769       0.003
   0.17948718  0.50000000  0.17948718       0.003
   0.16666667  0.50000000  0.16666667       0.003
   0.15384615  0.50000000  0.15384615       0.003
   0.14102564  0.50000000  0.14102564       0.003
   0.12820513  0.50000000  0.12820513       0.003
   0.11538462  0.50000000  0.11538462       0.003
   0.10256410  0.50000000  0.10256410       0.003
   0.08974359  0.50000000  0.08974359       0.003
   0.07692308  0.50000000  0.07692308       0.003
   0.06410256  0.50000000  0.06410256       0.003
   0.05128205  0.50000000  0.05128205       0.003
   0.03846154  0.50000000  0.03846154       0.003
   0.02564103  0.50000000  0.02564103       0.003
   0.01282051  0.50000000  0.01282051       0.003
   0.00000000  0.50000000  0.00000000       0.003
   0.50000000  0.50000000  0.00000000       0.003
   0.50000000  0.50000000  0.01282051       0.003
   0.50000000  0.50000000  0.02564103       0.003
   0.50000000  0.50000000  0.03846154       0.003
   0.50000000  0.50000000  0.05128205       0.003
   0.50000000  0.50000000  0.06410256       0.003
   0.50000000  0.50000000  0.07692308       0.003
   0.50000000  0.50000000  0.08974359       0.003
   0.50000000  0.50000000  0.10256410       0.003
   0.50000000  0.50000000  0.11538462       0.003
   0.50000000  0.50000000  0.12820513       0.003
   0.50000000  0.50000000  0.14102564       0.003
   0.50000000  0.50000000  0.15384615       0.003
   0.50000000  0.50000000  0.16666667       0.003
   0.50000000  0.50000000  0.17948718       0.003
   0.50000000  0.50000000  0.19230769       0.003
   0.50000000  0.50000000  0.20512821       0.003
   0.50000000  0.50000000  0.21794872       0.003
   0.50000000  0.50000000  0.23076923       0.003
   0.50000000  0.50000000  0.24358974       0.003
   0.50000000  0.50000000  0.25641026       0.003
   0.50000000  0.50000000  0.26923077       0.003
   0.50000000  0.50000000  0.28205128       0.003
   0.50000000  0.50000000  0.29487179       0.003
   0.50000000  0.50000000  0.30769231       0.003
   0.50000000  0.50000000  0.32051282       0.003
   0.50000000  0.50000000  0.33333333       0.003
   0.50000000  0.50000000  0.34615385       0.003
   0.50000000  0.50000000  0.35897436       0.003
   0.50000000  0.50000000  0.37179487       0.003
   0.50000000  0.50000000  0.38461538       0.003
   0.50000000  0.50000000  0.39743590       0.003
   0.50000000  0.50000000  0.41025641       0.003
   0.50000000  0.50000000  0.42307692       0.003
   0.50000000  0.50000000  0.43589744       0.003
   0.50000000  0.50000000  0.44871795       0.003
   0.50000000  0.50000000  0.46153846       0.003
   0.50000000  0.50000000  0.47435897       0.003
   0.50000000  0.50000000  0.48717949       0.003
   0.50000000  0.50000000  0.50000000       0.003
   0.00000000  0.50000000  0.00000000       0.003
   0.01282051  0.50000000  0.00000000       0.003
   0.02564103  0.50000000  0.00000000       0.003
   0.03846154  0.50000000  0.00000000       0.003
   0.05128205  0.50000000  0.00000000       0.003
   0.06410256  0.50000000  0.00000000       0.003
   0.07692308  0.50000000  0.00000000       0.003
   0.08974359  0.50000000  0.00000000       0.003
   0.10256410  0.50000000  0.00000000       0.003
   0.11538462  0.50000000  0.00000000       0.003
   0.12820513  0.50000000  0.00000000       0.003
   0.14102564  0.50000000  0.00000000       0.003
   0.15384615  0.50000000  0.00000000       0.003
   0.16666667  0.50000000  0.00000000       0.003
   0.17948718  0.50000000  0.00000000       0.003
   0.19230769  0.50000000  0.00000000       0.003
   0.20512821  0.50000000  0.00000000       0.003
   0.21794872  0.50000000  0.00000000       0.003
   0.23076923  0.50000000  0.00000000       0.003
   0.24358974  0.50000000  0.00000000       0.003
   0.25641026  0.50000000  0.00000000       0.003
   0.26923077  0.50000000  0.00000000       0.003
   0.28205128  0.50000000  0.00000000       0.003
   0.29487179  0.50000000  0.00000000       0.003
   0.30769231  0.50000000  0.00000000       0.003
   0.32051282  0.50000000  0.00000000       0.003
   0.33333333  0.50000000  0.00000000       0.003
   0.34615385  0.50000000  0.00000000       0.003
   0.35897436  0.50000000  0.00000000       0.003
   0.37179487  0.50000000  0.00000000       0.003
   0.38461538  0.50000000  0.00000000       0.003
   0.39743590  0.50000000  0.00000000       0.003
   0.41025641  0.50000000  0.00000000       0.003
   0.42307692  0.50000000  0.00000000       0.003
   0.43589744  0.50000000  0.00000000       0.003
   0.44871795  0.50000000  0.00000000       0.003
   0.46153846  0.50000000  0.00000000       0.003
   0.47435897  0.50000000  0.00000000       0.003
   0.48717949  0.50000000  0.00000000       0.003
   0.50000000  0.50000000  0.00000000       0.003
   0.50000000  0.50000000  0.00000000       0.003
   0.48717949  0.48717949  0.00000000       0.003
   0.47435897  0.47435897  0.00000000       0.003
   0.46153846  0.46153846  0.00000000       0.003
   0.44871795  0.44871795  0.00000000       0.003
   0.43589744  0.43589744  0.00000000       0.003
   0.42307692  0.42307692  0.00000000       0.003
   0.41025641  0.41025641  0.00000000       0.003
   0.39743590  0.39743590  0.00000000       0.003
   0.38461538  0.38461538  0.00000000       0.003
   0.37179487  0.37179487  0.00000000       0.003
   0.35897436  0.35897436  0.00000000       0.003
   0.34615385  0.34615385  0.00000000       0.003
   0.33333333  0.33333333  0.00000000       0.003
   0.32051282  0.32051282  0.00000000       0.003
   0.30769231  0.30769231  0.00000000       0.003
   0.29487179  0.29487179  0.00000000       0.003
   0.28205128  0.28205128  0.00000000       0.003
   0.26923077  0.26923077  0.00000000       0.003
   0.25641026  0.25641026  0.00000000       0.003
   0.24358974  0.24358974  0.00000000       0.003
   0.23076923  0.23076923  0.00000000       0.003
   0.21794872  0.21794872  0.00000000       0.003
   0.20512821  0.20512821  0.00000000       0.003
   0.19230769  0.19230769  0.00000000       0.003
   0.17948718  0.17948718  0.00000000       0.003
   0.16666667  0.16666667  0.00000000       0.003
   0.15384615  0.15384615  0.00000000       0.003
   0.14102564  0.14102564  0.00000000       0.003
   0.12820513  0.12820513  0.00000000       0.003
   0.11538462  0.11538462  0.00000000       0.003
   0.10256410  0.10256410  0.00000000       0.003
   0.08974359  0.08974359  0.00000000       0.003
   0.07692308  0.07692308  0.00000000       0.003
   0.06410256  0.06410256  0.00000000       0.003
   0.05128205  0.05128205  0.00000000       0.003
   0.03846154  0.03846154  0.00000000       0.003
   0.02564103  0.02564103  0.00000000       0.003
   0.01282051  0.01282051  0.00000000       0.003
   0.00000000  0.00000000  0.00000000       0.003
 
 k-points in reciprocal lattice and weights: CUB (simple cubic) G-X-M-G-R-X M-R      
   0.00000000  0.00000000  0.00000000       0.003
   0.00000000  0.01282051  0.00000000       0.003
   0.00000000  0.02564103  0.00000000       0.003
   0.00000000  0.03846154  0.00000000       0.003
   0.00000000  0.05128205  0.00000000       0.003
   0.00000000  0.06410256  0.00000000       0.003
   0.00000000  0.07692308  0.00000000       0.003
   0.00000000  0.08974359  0.00000000       0.003
   0.00000000  0.10256410  0.00000000       0.003
   0.00000000  0.11538462  0.00000000       0.003
   0.00000000  0.12820513  0.00000000       0.003
   0.00000000  0.14102564  0.00000000       0.003
   0.00000000  0.15384615  0.00000000       0.003
   0.00000000  0.16666667  0.00000000       0.003
   0.00000000  0.17948718  0.00000000       0.003
   0.00000000  0.19230769  0.00000000       0.003
   0.00000000  0.20512821  0.00000000       0.003
   0.00000000  0.21794872  0.00000000       0.003
   0.00000000  0.23076923  0.00000000       0.003
   0.00000000  0.24358974  0.00000000       0.003
   0.00000000  0.25641026  0.00000000       0.003
   0.00000000  0.26923077  0.00000000       0.003
   0.00000000  0.28205128  0.00000000       0.003
   0.00000000  0.29487179  0.00000000       0.003
   0.00000000  0.30769231  0.00000000       0.003
   0.00000000  0.32051282  0.00000000       0.003
   0.00000000  0.33333333  0.00000000       0.003
   0.00000000  0.34615385  0.00000000       0.003
   0.00000000  0.35897436  0.00000000       0.003
   0.00000000  0.37179487  0.00000000       0.003
   0.00000000  0.38461538  0.00000000       0.003
   0.00000000  0.39743590  0.00000000       0.003
   0.00000000  0.41025641  0.00000000       0.003
   0.00000000  0.42307692  0.00000000       0.003
   0.00000000  0.43589744  0.00000000       0.003
   0.00000000  0.44871795  0.00000000       0.003
   0.00000000  0.46153846  0.00000000       0.003
   0.00000000  0.47435897  0.00000000       0.003
   0.00000000  0.48717949  0.00000000       0.003
   0.00000000  0.50000000  0.00000000       0.003
   0.00000000  0.50000000  0.00000000       0.003
   0.01282051  0.50000000  0.00000000       0.003
   0.02564103  0.50000000  0.00000000       0.003
   0.03846154  0.50000000  0.00000000       0.003
   0.05128205  0.50000000  0.00000000       0.003
   0.06410256  0.50000000  0.00000000       0.003
   0.07692308  0.50000000  0.00000000       0.003
   0.08974359  0.50000000  0.00000000       0.003
   0.10256410  0.50000000  0.00000000       0.003
   0.11538462  0.50000000  0.00000000       0.003
   0.12820513  0.50000000  0.00000000       0.003
   0.14102564  0.50000000  0.00000000       0.003
   0.15384615  0.50000000  0.00000000       0.003
   0.16666667  0.50000000  0.00000000       0.003
   0.17948718  0.50000000  0.00000000       0.003
   0.19230769  0.50000000  0.00000000       0.003
   0.20512821  0.50000000  0.00000000       0.003
   0.21794872  0.50000000  0.00000000       0.003
   0.23076923  0.50000000  0.00000000       0.003
   0.24358974  0.50000000  0.00000000       0.003
   0.25641026  0.50000000  0.00000000       0.003
   0.26923077  0.50000000  0.00000000       0.003
   0.28205128  0.50000000  0.00000000       0.003
   0.29487179  0.50000000  0.00000000       0.003
   0.30769231  0.50000000  0.00000000       0.003
   0.32051282  0.50000000  0.00000000       0.003
   0.33333333  0.50000000  0.00000000       0.003
   0.34615385  0.50000000  0.00000000       0.003
   0.35897436  0.50000000  0.00000000       0.003
   0.37179487  0.50000000  0.00000000       0.003
   0.38461538  0.50000000  0.00000000       0.003
   0.39743590  0.50000000  0.00000000       0.003
   0.41025641  0.50000000  0.00000000       0.003
   0.42307692  0.50000000  0.00000000       0.003
   0.43589744  0.50000000  0.00000000       0.003
   0.44871795  0.50000000  0.00000000       0.003
   0.46153846  0.50000000  0.00000000       0.003
   0.47435897  0.50000000  0.00000000       0.003
   0.48717949  0.50000000  0.00000000       0.003
   0.50000000  0.50000000  0.00000000       0.003
   0.50000000  0.50000000  0.00000000       0.003
   0.48717949  0.48717949  0.00000000       0.003
   0.47435897  0.47435897  0.00000000       0.003
   0.46153846  0.46153846  0.00000000       0.003
   0.44871795  0.44871795  0.00000000       0.003
   0.43589744  0.43589744  0.00000000       0.003
   0.42307692  0.42307692  0.00000000       0.003
   0.41025641  0.41025641  0.00000000       0.003
   0.39743590  0.39743590  0.00000000       0.003
   0.38461538  0.38461538  0.00000000       0.003
   0.37179487  0.37179487  0.00000000       0.003
   0.35897436  0.35897436  0.00000000       0.003
   0.34615385  0.34615385  0.00000000       0.003
   0.33333333  0.33333333  0.00000000       0.003
   0.32051282  0.32051282  0.00000000       0.003
   0.30769231  0.30769231  0.00000000       0.003
   0.29487179  0.29487179  0.00000000       0.003
   0.28205128  0.28205128  0.00000000       0.003
   0.26923077  0.26923077  0.00000000       0.003
   0.25641026  0.25641026  0.00000000       0.003
   0.24358974  0.24358974  0.00000000       0.003
   0.23076923  0.23076923  0.00000000       0.003
   0.21794872  0.21794872  0.00000000       0.003
   0.20512821  0.20512821  0.00000000       0.003
   0.19230769  0.19230769  0.00000000       0.003
   0.17948718  0.17948718  0.00000000       0.003
   0.16666667  0.16666667  0.00000000       0.003
   0.15384615  0.15384615  0.00000000       0.003
   0.14102564  0.14102564  0.00000000       0.003
   0.12820513  0.12820513  0.00000000       0.003
   0.11538462  0.11538462  0.00000000       0.003
   0.10256410  0.10256410  0.00000000       0.003
   0.08974359  0.08974359  0.00000000       0.003
   0.07692308  0.07692308  0.00000000       0.003
   0.06410256  0.06410256  0.00000000       0.003
   0.05128205  0.05128205  0.00000000       0.003
   0.03846154  0.03846154  0.00000000       0.003
   0.02564103  0.02564103  0.00000000       0.003
   0.01282051  0.01282051  0.00000000       0.003
   0.00000000  0.00000000  0.00000000       0.003
   0.00000000  0.00000000  0.00000000       0.003
   0.01282051  0.01282051  0.01282051       0.003
   0.02564103  0.02564103  0.02564103       0.003
   0.03846154  0.03846154  0.03846154       0.003
   0.05128205  0.05128205  0.05128205       0.003
   0.06410256  0.06410256  0.06410256       0.003
   0.07692308  0.07692308  0.07692308       0.003
   0.08974359  0.08974359  0.08974359       0.003
   0.10256410  0.10256410  0.10256410       0.003
   0.11538462  0.11538462  0.11538462       0.003
   0.12820513  0.12820513  0.12820513       0.003
   0.14102564  0.14102564  0.14102564       0.003
   0.15384615  0.15384615  0.15384615       0.003
   0.16666667  0.16666667  0.16666667       0.003
   0.17948718  0.17948718  0.17948718       0.003
   0.19230769  0.19230769  0.19230769       0.003
   0.20512821  0.20512821  0.20512821       0.003
   0.21794872  0.21794872  0.21794872       0.003
   0.23076923  0.23076923  0.23076923       0.003
   0.24358974  0.24358974  0.24358974       0.003
   0.25641026  0.25641026  0.25641026       0.003
   0.26923077  0.26923077  0.26923077       0.003
   0.28205128  0.28205128  0.28205128       0.003
   0.29487179  0.29487179  0.29487179       0.003
   0.30769231  0.30769231  0.30769231       0.003
   0.32051282  0.32051282  0.32051282       0.003
   0.33333333  0.33333333  0.33333333       0.003
   0.34615385  0.34615385  0.34615385       0.003
   0.35897436  0.35897436  0.35897436       0.003
   0.37179487  0.37179487  0.37179487       0.003
   0.38461538  0.38461538  0.38461538       0.003
   0.39743590  0.39743590  0.39743590       0.003
   0.41025641  0.41025641  0.41025641       0.003
   0.42307692  0.42307692  0.42307692       0.003
   0.43589744  0.43589744  0.43589744       0.003
   0.44871795  0.44871795  0.44871795       0.003
   0.46153846  0.46153846  0.46153846       0.003
   0.47435897  0.47435897  0.47435897       0.003
   0.48717949  0.48717949  0.48717949       0.003
   0.50000000  0.50000000  0.50000000       0.003
   0.50000000  0.50000000  0.50000000       0.003
   0.48717949  0.50000000  0.48717949       0.003
   0.47435897  0.50000000  0.47435897       0.003
   0.46153846  0.50000000  0.46153846       0.003
   0.44871795  0.50000000  0.44871795       0.003
   0.43589744  0.50000000  0.43589744       0.003
   0.42307692  0.50000000  0.42307692       0.003
   0.41025641  0.50000000  0.41025641       0.003
   0.39743590  0.50000000  0.39743590       0.003
   0.38461538  0.50000000  0.38461538       0.003
   0.37179487  0.50000000  0.37179487       0.003
   0.35897436  0.50000000  0.35897436       0.003
   0.34615385  0.50000000  0.34615385       0.003
   0.33333333  0.50000000  0.33333333       0.003
   0.32051282  0.50000000  0.32051282       0.003
   0.30769231  0.50000000  0.30769231       0.003
   0.29487179  0.50000000  0.29487179       0.003
   0.28205128  0.50000000  0.28205128       0.003
   0.26923077  0.50000000  0.26923077       0.003
   0.25641026  0.50000000  0.25641026       0.003
   0.24358974  0.50000000  0.24358974       0.003
   0.23076923  0.50000000  0.23076923       0.003
   0.21794872  0.50000000  0.21794872       0.003
   0.20512821  0.50000000  0.20512821       0.003
   0.19230769  0.50000000  0.19230769       0.003
   0.17948718  0.50000000  0.17948718       0.003
   0.16666667  0.50000000  0.16666667       0.003
   0.15384615  0.50000000  0.15384615       0.003
   0.14102564  0.50000000  0.14102564       0.003
   0.12820513  0.50000000  0.12820513       0.003
   0.11538462  0.50000000  0.11538462       0.003
   0.10256410  0.50000000  0.10256410       0.003
   0.08974359  0.50000000  0.08974359       0.003
   0.07692308  0.50000000  0.07692308       0.003
   0.06410256  0.50000000  0.06410256       0.003
   0.05128205  0.50000000  0.05128205       0.003
   0.03846154  0.50000000  0.03846154       0.003
   0.02564103  0.50000000  0.02564103       0.003
   0.01282051  0.50000000  0.01282051       0.003
   0.00000000  0.50000000  0.00000000       0.003
   0.50000000  0.50000000  0.00000000       0.003
   0.50000000  0.50000000  0.01282051       0.003
   0.50000000  0.50000000  0.02564103       0.003
   0.50000000  0.50000000  0.03846154       0.003
   0.50000000  0.50000000  0.05128205       0.003
   0.50000000  0.50000000  0.06410256       0.003
   0.50000000  0.50000000  0.07692308       0.003
   0.50000000  0.50000000  0.08974359       0.003
   0.50000000  0.50000000  0.10256410       0.003
   0.50000000  0.50000000  0.11538462       0.003
   0.50000000  0.50000000  0.12820513       0.003
   0.50000000  0.50000000  0.14102564       0.003
   0.50000000  0.50000000  0.15384615       0.003
   0.50000000  0.50000000  0.16666667       0.003
   0.50000000  0.50000000  0.17948718       0.003
   0.50000000  0.50000000  0.19230769       0.003
   0.50000000  0.50000000  0.20512821       0.003
   0.50000000  0.50000000  0.21794872       0.003
   0.50000000  0.50000000  0.23076923       0.003
   0.50000000  0.50000000  0.24358974       0.003
   0.50000000  0.50000000  0.25641026       0.003
   0.50000000  0.50000000  0.26923077       0.003
   0.50000000  0.50000000  0.28205128       0.003
   0.50000000  0.50000000  0.29487179       0.003
   0.50000000  0.50000000  0.30769231       0.003
   0.50000000  0.50000000  0.32051282       0.003
   0.50000000  0.50000000  0.33333333       0.003
   0.50000000  0.50000000  0.34615385       0.003
   0.50000000  0.50000000  0.35897436       0.003
   0.50000000  0.50000000  0.37179487       0.003
   0.50000000  0.50000000  0.38461538       0.003
   0.50000000  0.50000000  0.39743590       0.003
   0.50000000  0.50000000  0.41025641       0.003
   0.50000000  0.50000000  0.42307692       0.003
   0.50000000  0.50000000  0.43589744       0.003
   0.50000000  0.50000000  0.44871795       0.003
   0.50000000  0.50000000  0.46153846       0.003
   0.50000000  0.50000000  0.47435897       0.003
   0.50000000  0.50000000  0.48717949       0.003
   0.50000000  0.50000000  0.50000000       0.003
   0.00000000  0.50000000  0.00000000       0.003
   0.01282051  0.50000000  0.00000000       0.003
   0.02564103  0.50000000  0.00000000       0.003
   0.03846154  0.50000000  0.00000000       0.003
   0.05128205  0.50000000  0.00000000       0.003
   0.06410256  0.50000000  0.00000000       0.003
   0.07692308  0.50000000  0.00000000       0.003
   0.08974359  0.50000000  0.00000000       0.003
   0.10256410  0.50000000  0.00000000       0.003
   0.11538462  0.50000000  0.00000000       0.003
   0.12820513  0.50000000  0.00000000       0.003
   0.14102564  0.50000000  0.00000000       0.003
   0.15384615  0.50000000  0.00000000       0.003
   0.16666667  0.50000000  0.00000000       0.003
   0.17948718  0.50000000  0.00000000       0.003
   0.19230769  0.50000000  0.00000000       0.003
   0.20512821  0.50000000  0.00000000       0.003
   0.21794872  0.50000000  0.00000000       0.003
   0.23076923  0.50000000  0.00000000       0.003
   0.24358974  0.50000000  0.00000000       0.003
   0.25641026  0.50000000  0.00000000       0.003
   0.26923077  0.50000000  0.00000000       0.003
   0.28205128  0.50000000  0.00000000       0.003
   0.29487179  0.50000000  0.00000000       0.003
   0.30769231  0.50000000  0.00000000       0.003
   0.32051282  0.50000000  0.00000000       0.003
   0.33333333  0.50000000  0.00000000       0.003
   0.34615385  0.50000000  0.00000000       0.003
   0.35897436  0.50000000  0.00000000       0.003
   0.37179487  0.50000000  0.00000000       0.003
   0.38461538  0.50000000  0.00000000       0.003
   0.39743590  0.50000000  0.00000000       0.003
   0.41025641  0.50000000  0.00000000       0.003
   0.42307692  0.50000000  0.00000000       0.003
   0.43589744  0.50000000  0.00000000       0.003
   0.44871795  0.50000000  0.00000000       0.003
   0.46153846  0.50000000  0.00000000       0.003
   0.47435897  0.50000000  0.00000000       0.003
   0.48717949  0.50000000  0.00000000       0.003
   0.50000000  0.50000000  0.00000000       0.003
   0.50000000  0.50000000  0.00000000       0.003
   0.48717949  0.48717949  0.00000000       0.003
   0.47435897  0.47435897  0.00000000       0.003
   0.46153846  0.46153846  0.00000000       0.003
   0.44871795  0.44871795  0.00000000       0.003
   0.43589744  0.43589744  0.00000000       0.003
   0.42307692  0.42307692  0.00000000       0.003
   0.41025641  0.41025641  0.00000000       0.003
   0.39743590  0.39743590  0.00000000       0.003
   0.38461538  0.38461538  0.00000000       0.003
   0.37179487  0.37179487  0.00000000       0.003
   0.35897436  0.35897436  0.00000000       0.003
   0.34615385  0.34615385  0.00000000       0.003
   0.33333333  0.33333333  0.00000000       0.003
   0.32051282  0.32051282  0.00000000       0.003
   0.30769231  0.30769231  0.00000000       0.003
   0.29487179  0.29487179  0.00000000       0.003
   0.28205128  0.28205128  0.00000000       0.003
   0.26923077  0.26923077  0.00000000       0.003
   0.25641026  0.25641026  0.00000000       0.003
   0.24358974  0.24358974  0.00000000       0.003
   0.23076923  0.23076923  0.00000000       0.003
   0.21794872  0.21794872  0.00000000       0.003
   0.20512821  0.20512821  0.00000000       0.003
   0.19230769  0.19230769  0.00000000       0.003
   0.17948718  0.17948718  0.00000000       0.003
   0.16666667  0.16666667  0.00000000       0.003
   0.15384615  0.15384615  0.00000000       0.003
   0.14102564  0.14102564  0.00000000       0.003
   0.12820513  0.12820513  0.00000000       0.003
   0.11538462  0.11538462  0.00000000       0.003
   0.10256410  0.10256410  0.00000000       0.003
   0.08974359  0.08974359  0.00000000       0.003
   0.07692308  0.07692308  0.00000000       0.003
   0.06410256  0.06410256  0.00000000       0.003
   0.05128205  0.05128205  0.00000000       0.003
   0.03846154  0.03846154  0.00000000       0.003
   0.02564103  0.02564103  0.00000000       0.003
   0.01282051  0.01282051  0.00000000       0.003
   0.00000000  0.00000000  0.00000000       0.003
 
 position of ions in fractional coordinates (direct lattice) 
   0.00000000  0.00000000  0.00000000
   0.50000000  0.50000000  0.50000000
   0.50000000  0.50000000  0.00000000
   0.50000000  0.00000000  0.50000000
   0.00000000  0.50000000  0.50000000
 
 position of ions in cartesian coordinates  (Angst):
   0.00000000  0.00000000  0.00000000
   1.92326000  1.92326000  1.92326000
   1.92326000  1.92326000  0.00000000
   1.92326000  0.00000000  1.92326000
   0.00000000  1.92326000  1.92326000
 


--------------------------------------------------------------------------------------------------------


 k-point  1 :   0.0000 0.0000 0.0000  plane waves:    1935
 k-point  2 :   0.0000 0.0128 0.0000  plane waves:    1899
 k-point  3 :   0.0000 0.0256 0.0000  plane waves:    1899
 k-point  4 :   0.0000 0.0385 0.0000  plane waves:    1899
 k-point  5 :   0.0000 0.0513 0.0000  plane waves:    1899
 k-point  6 :   0.0000 0.0641 0.0000  plane waves:    1899
 k-point  7 :   0.0000 0.0769 0.0000  plane waves:    1895
 k-point  8 :   0.0000 0.0897 0.0000  plane waves:    1895
 k-point  9 :   0.0000 0.1026 0.0000  plane waves:    1895
 k-point 10 :   0.0000 0.1154 0.0000  plane waves:    1895
 k-point 11 :   0.0000 0.1282 0.0000  plane waves:    1895
 k-point 12 :   0.0000 0.1410 0.0000  plane waves:    1895
 k-point 13 :   0.0000 0.1538 0.0000  plane waves:    1891
 k-point 14 :   0.0000 0.1667 0.0000  plane waves:    1887
 k-point 15 :   0.0000 0.1795 0.0000  plane waves:    1899
 k-point 16 :   0.0000 0.1923 0.0000  plane waves:    1899
 k-point 17 :   0.0000 0.2051 0.0000  plane waves:    1899
 k-point 18 :   0.0000 0.2179 0.0000  plane waves:    1907
 k-point 19 :   0.0000 0.2308 0.0000  plane waves:    1907
 k-point 20 :   0.0000 0.2436 0.0000  plane waves:    1907
 k-point 21 :   0.0000 0.2564 0.0000  plane waves:    1907
 k-point 22 :   0.0000 0.2692 0.0000  plane waves:    1907
 k-point 23 :   0.0000 0.2821 0.0000  plane waves:    1907
 k-point 24 :   0.0000 0.2949 0.0000  plane waves:    1907
 k-point 25 :   0.0000 0.3077 0.0000  plane waves:    1915
 k-point 26 :   0.0000 0.3205 0.0000  plane waves:    1916
 k-point 27 :   0.0000 0.3333 0.0000  plane waves:    1916
 k-point 28 :   0.0000 0.3462 0.0000  plane waves:    1916
 k-point 29 :   0.0000 0.3590 0.0000  plane waves:    1916
 k-point 30 :   0.0000 0.3718 0.0000  plane waves:    1908
 k-point 31 :   0.0000 0.3846 0.0000  plane waves:    1912
 k-point 32 :   0.0000 0.3974 0.0000  plane waves:    1912
 k-point 33 :   0.0000 0.4103 0.0000  plane waves:    1908
 k-point 34 :   0.0000 0.4231 0.0000  plane waves:    1904
 k-point 35 :   0.0000 0.4359 0.0000  plane waves:    1904
 k-point 36 :   0.0000 0.4487 0.0000  plane waves:    1908
 k-point 37 :   0.0000 0.4615 0.0000  plane waves:    1904
 k-point 38 :   0.0000 0.4744 0.0000  plane waves:    1904
 k-point 39 :   0.0000 0.4872 0.0000  plane waves:    1888
 k-point 40 :   0.0000 0.5000 0.0000  plane waves:    1888
 k-point 41 :   0.0000 0.5000 0.0000  plane waves:    1888
 k-point 42 :   0.0128 0.5000 0.0000  plane waves:    1888
 k-point 43 :   0.0256 0.5000 0.0000  plane waves:    1896
 k-point 44 :   0.0385 0.5000 0.0000  plane waves:    1900
 k-point 45 :   0.0513 0.5000 0.0000  plane waves:    1900
 k-point 46 :   0.0641 0.5000 0.0000  plane waves:    1900
 k-point 47 :   0.0769 0.5000 0.0000  plane waves:    1900
 k-point 48 :   0.0897 0.5000 0.0000  plane waves:    1904
 k-point 49 :   0.1026 0.5000 0.0000  plane waves:    1898
 k-point 50 :   0.1154 0.5000 0.0000  plane waves:    1902
 k-point 51 :   0.1282 0.5000 0.0000  plane waves:    1902
 k-point 52 :   0.1410 0.5000 0.0000  plane waves:    1902
 k-point 53 :   0.1538 0.5000 0.0000  plane waves:    1894
 k-point 54 :   0.1667 0.5000 0.0000  plane waves:    1896
 k-point 55 :   0.1795 0.5000 0.0000  plane waves:    1896
 k-point 56 :   0.1923 0.5000 0.0000  plane waves:    1900
 k-point 57 :   0.2051 0.5000 0.0000  plane waves:    1896
 k-point 58 :   0.2179 0.5000 0.0000  plane waves:    1904
 k-point 59 :   0.2308 0.5000 0.0000  plane waves:    1910
 k-point 60 :   0.2436 0.5000 0.0000  plane waves:    1914
 k-point 61 :   0.2564 0.5000 0.0000  plane waves:    1914
 k-point 62 :   0.2692 0.5000 0.0000  plane waves:    1908
 k-point 63 :   0.2821 0.5000 0.0000  plane waves:    1896
 k-point 64 :   0.2949 0.5000 0.0000  plane waves:    1900
 k-point 65 :   0.3077 0.5000 0.0000  plane waves:    1900
 k-point 66 :   0.3205 0.5000 0.0000  plane waves:    1900
 k-point 67 :   0.3333 0.5000 0.0000  plane waves:    1896
 k-point 68 :   0.3462 0.5000 0.0000  plane waves:    1908
 k-point 69 :   0.3590 0.5000 0.0000  plane waves:    1908
 k-point 70 :   0.3718 0.5000 0.0000  plane waves:    1910
 k-point 71 :   0.3846 0.5000 0.0000  plane waves:    1914
 k-point 72 :   0.3974 0.5000 0.0000  plane waves:    1910
 k-point 73 :   0.4103 0.5000 0.0000  plane waves:    1910
 k-point 74 :   0.4231 0.5000 0.0000  plane waves:    1910
 k-point 75 :   0.4359 0.5000 0.0000  plane waves:    1918
 k-point 76 :   0.4487 0.5000 0.0000  plane waves:    1918
 k-point 77 :   0.4615 0.5000 0.0000  plane waves:    1926
 k-point 78 :   0.4744 0.5000 0.0000  plane waves:    1924
 k-point 79 :   0.4872 0.5000 0.0000  plane waves:    1924
 k-point 80 :   0.5000 0.5000 0.0000  plane waves:    1924
 k-point 81 :   0.5000 0.5000 0.0000  plane waves:    1924
 k-point 82 :   0.4872 0.4872 0.0000  plane waves:    1924
 k-point 83 :   0.4744 0.4744 0.0000  plane waves:    1928
 k-point 84 :   0.4615 0.4615 0.0000  plane waves:    1918
 k-point 85 :   0.4487 0.4487 0.0000  plane waves:    1912
 k-point 86 :   0.4359 0.4359 0.0000  plane waves:    1912
 k-point 87 :   0.4231 0.4231 0.0000  plane waves:    1913
 k-point 88 :   0.4103 0.4103 0.0000  plane waves:    1901
 k-point 89 :   0.3974 0.3974 0.0000  plane waves:    1901
 k-point 90 :   0.3846 0.3846 0.0000  plane waves:    1901
 k-point 91 :   0.3718 0.3718 0.0000  plane waves:    1897
 k-point 92 :   0.3590 0.3590 0.0000  plane waves:    1895
 k-point 93 :   0.3462 0.3462 0.0000  plane waves:    1899
 k-point 94 :   0.3333 0.3333 0.0000  plane waves:    1903
 k-point 95 :   0.3205 0.3205 0.0000  plane waves:    1899
 k-point 96 :   0.3077 0.3077 0.0000  plane waves:    1887
 k-point 97 :   0.2949 0.2949 0.0000  plane waves:    1891
 k-point 98 :   0.2821 0.2821 0.0000  plane waves:    1895
 k-point 99 :   0.2692 0.2692 0.0000  plane waves:    1897
 k-point ** :   0.2564 0.2564 0.0000  plane waves:    1893
 k-point ** :   0.2436 0.2436 0.0000  plane waves:    1895
 k-point ** :   0.2308 0.2308 0.0000  plane waves:    1901
 k-point ** :   0.2179 0.2179 0.0000  plane waves:    1897
 k-point ** :   0.2051 0.2051 0.0000  plane waves:    1893
 k-point ** :   0.1923 0.1923 0.0000  plane waves:    1897
 k-point ** :   0.1795 0.1795 0.0000  plane waves:    1901
 k-point ** :   0.1667 0.1667 0.0000  plane waves:    1893
 k-point ** :   0.1538 0.1538 0.0000  plane waves:    1897
 k-point ** :   0.1410 0.1410 0.0000  plane waves:    1893
 k-point ** :   0.1282 0.1282 0.0000  plane waves:    1889
 k-point ** :   0.1154 0.1154 0.0000  plane waves:    1893
 k-point ** :   0.1026 0.1026 0.0000  plane waves:    1897
 k-point ** :   0.0897 0.0897 0.0000  plane waves:    1895
 k-point ** :   0.0769 0.0769 0.0000  plane waves:    1895
 k-point ** :   0.0641 0.0641 0.0000  plane waves:    1899
 k-point ** :   0.0513 0.0513 0.0000  plane waves:    1899
 k-point ** :   0.0385 0.0385 0.0000  plane waves:    1901
 k-point ** :   0.0256 0.0256 0.0000  plane waves:    1901
 k-point ** :   0.0128 0.0128 0.0000  plane waves:    1901
 k-point ** :   0.0000 0.0000 0.0000  plane waves:    1935
 k-point ** :   0.0000 0.0000 0.0000  plane waves:    1935
 k-point ** :   0.0128 0.0128 0.0128  plane waves:    1899
 k-point ** :   0.0256 0.0256 0.0256  plane waves:    1899
 k-point ** :   0.0385 0.0385 0.0385  plane waves:    1899
 k-point ** :   0.0513 0.0513 0.0513  plane waves:    1893
 k-point ** :   0.0641 0.0641 0.0641  plane waves:    1893
 k-point ** :   0.0769 0.0769 0.0769  plane waves:    1899
 k-point ** :   0.0897 0.0897 0.0897  plane waves:    1896
 k-point ** :   0.1026 0.1026 0.1026  plane waves:    1899
 k-point ** :   0.1154 0.1154 0.1154  plane waves:    1899
 k-point ** :   0.1282 0.1282 0.1282  plane waves:    1899
 k-point ** :   0.1410 0.1410 0.1410  plane waves:    1893
 k-point ** :   0.1538 0.1538 0.1538  plane waves:    1905
 k-point ** :   0.1667 0.1667 0.1667  plane waves:    1905
 k-point ** :   0.1795 0.1795 0.1795  plane waves:    1905
 k-point ** :   0.1923 0.1923 0.1923  plane waves:    1893
 k-point ** :   0.2051 0.2051 0.2051  plane waves:    1893
 k-point ** :   0.2179 0.2179 0.2179  plane waves:    1899
 k-point ** :   0.2308 0.2308 0.2308  plane waves:    1899
 k-point ** :   0.2436 0.2436 0.2436  plane waves:    1899
 k-point ** :   0.2564 0.2564 0.2564  plane waves:    1902
 k-point ** :   0.2692 0.2692 0.2692  plane waves:    1902
 k-point ** :   0.2821 0.2821 0.2821  plane waves:    1902
 k-point ** :   0.2949 0.2949 0.2949  plane waves:    1902
 k-point ** :   0.3077 0.3077 0.3077  plane waves:    1899
 k-point ** :   0.3205 0.3205 0.3205  plane waves:    1890
 k-point ** :   0.3333 0.3333 0.3333  plane waves:    1896
 k-point ** :   0.3462 0.3462 0.3462  plane waves:    1884
 k-point ** :   0.3590 0.3590 0.3590  plane waves:    1893
 k-point ** :   0.3718 0.3718 0.3718  plane waves:    1896
 k-point ** :   0.3846 0.3846 0.3846  plane waves:    1884
 k-point ** :   0.3974 0.3974 0.3974  plane waves:    1884
 k-point ** :   0.4103 0.4103 0.4103  plane waves:    1896
 k-point ** :   0.4231 0.4231 0.4231  plane waves:    1890
 k-point ** :   0.4359 0.4359 0.4359  plane waves:    1880
 k-point ** :   0.4487 0.4487 0.4487  plane waves:    1880
 k-point ** :   0.4615 0.4615 0.4615  plane waves:    1880
 k-point ** :   0.4744 0.4744 0.4744  plane waves:    1880
 k-point ** :   0.4872 0.4872 0.4872  plane waves:    1904
 k-point ** :   0.5000 0.5000 0.5000  plane waves:    1904
 k-point ** :   0.5000 0.5000 0.5000  plane waves:    1904
 k-point ** :   0.4872 0.5000 0.4872  plane waves:    1904
 k-point ** :   0.4744 0.5000 0.4744  plane waves:    1888
 k-point ** :   0.4615 0.5000 0.4615  plane waves:    1888
 k-point ** :   0.4487 0.5000 0.4487  plane waves:    1888
 k-point ** :   0.4359 0.5000 0.4359  plane waves:    1888
 k-point ** :   0.4231 0.5000 0.4231  plane waves:    1884
 k-point ** :   0.4103 0.5000 0.4103  plane waves:    1890
 k-point ** :   0.3974 0.5000 0.3974  plane waves:    1900
 k-point ** :   0.3846 0.5000 0.3846  plane waves:    1892
 k-point ** :   0.3718 0.5000 0.3718  plane waves:    1888
 k-point ** :   0.3590 0.5000 0.3590  plane waves:    1876
 k-point ** :   0.3462 0.5000 0.3462  plane waves:    1888
 k-point ** :   0.3333 0.5000 0.3333  plane waves:    1880
 k-point ** :   0.3205 0.5000 0.3205  plane waves:    1890
 k-point ** :   0.3077 0.5000 0.3077  plane waves:    1898
 k-point ** :   0.2949 0.5000 0.2949  plane waves:    1898
 k-point ** :   0.2821 0.5000 0.2821  plane waves:    1890
 k-point ** :   0.2692 0.5000 0.2692  plane waves:    1894
 k-point ** :   0.2564 0.5000 0.2564  plane waves:    1894
 k-point ** :   0.2436 0.5000 0.2436  plane waves:    1894
 k-point ** :   0.2308 0.5000 0.2308  plane waves:    1898
 k-point ** :   0.2179 0.5000 0.2179  plane waves:    1910
 k-point ** :   0.2051 0.5000 0.2051  plane waves:    1904
 k-point ** :   0.1923 0.5000 0.1923  plane waves:    1904
 k-point ** :   0.1795 0.5000 0.1795  plane waves:    1904
 k-point ** :   0.1667 0.5000 0.1667  plane waves:    1918
 k-point ** :   0.1538 0.5000 0.1538  plane waves:    1904
 k-point ** :   0.1410 0.5000 0.1410  plane waves:    1904
 k-point ** :   0.1282 0.5000 0.1282  plane waves:    1906
 k-point ** :   0.1154 0.5000 0.1154  plane waves:    1906
 k-point ** :   0.1026 0.5000 0.1026  plane waves:    1904
 k-point ** :   0.0897 0.5000 0.0897  plane waves:    1912
 k-point ** :   0.0769 0.5000 0.0769  plane waves:    1908
 k-point ** :   0.0641 0.5000 0.0641  plane waves:    1908
 k-point ** :   0.0513 0.5000 0.0513  plane waves:    1904
 k-point ** :   0.0385 0.5000 0.0385  plane waves:    1896
 k-point ** :   0.0256 0.5000 0.0256  plane waves:    1904
 k-point ** :   0.0128 0.5000 0.0128  plane waves:    1892
 k-point ** :   0.0000 0.5000 0.0000  plane waves:    1888
 k-point ** :   0.5000 0.5000 0.0000  plane waves:    1924
 k-point ** :   0.5000 0.5000 0.0128  plane waves:    1924
 k-point ** :   0.5000 0.5000 0.0256  plane waves:    1924
 k-point ** :   0.5000 0.5000 0.0385  plane waves:    1924
 k-point ** :   0.5000 0.5000 0.0513  plane waves:    1916
 k-point ** :   0.5000 0.5000 0.0641  plane waves:    1916
 k-point ** :   0.5000 0.5000 0.0769  plane waves:    1900
 k-point ** :   0.5000 0.5000 0.0897  plane waves:    1908
 k-point ** :   0.5000 0.5000 0.1026  plane waves:    1908
 k-point ** :   0.5000 0.5000 0.1154  plane waves:    1900
 k-point ** :   0.5000 0.5000 0.1282  plane waves:    1896
 k-point ** :   0.5000 0.5000 0.1410  plane waves:    1896
 k-point ** :   0.5000 0.5000 0.1538  plane waves:    1880
 k-point ** :   0.5000 0.5000 0.1667  plane waves:    1880
 k-point ** :   0.5000 0.5000 0.1795  plane waves:    1892
 k-point ** :   0.5000 0.5000 0.1923  plane waves:    1900
 k-point ** :   0.5000 0.5000 0.2051  plane waves:    1900
 k-point ** :   0.5000 0.5000 0.2179  plane waves:    1892
 k-point ** :   0.5000 0.5000 0.2308  plane waves:    1892
 k-point ** :   0.5000 0.5000 0.2436  plane waves:    1884
 k-point ** :   0.5000 0.5000 0.2564  plane waves:    1884
 k-point ** :   0.5000 0.5000 0.2692  plane waves:    1884
 k-point ** :   0.5000 0.5000 0.2821  plane waves:    1892
 k-point ** :   0.5000 0.5000 0.2949  plane waves:    1892
 k-point ** :   0.5000 0.5000 0.3077  plane waves:    1896
 k-point ** :   0.5000 0.5000 0.3205  plane waves:    1896
 k-point ** :   0.5000 0.5000 0.3333  plane waves:    1904
 k-point ** :   0.5000 0.5000 0.3462  plane waves:    1896
 k-point ** :   0.5000 0.5000 0.3590  plane waves:    1900
 k-point ** :   0.5000 0.5000 0.3718  plane waves:    1892
 k-point ** :   0.5000 0.5000 0.3846  plane waves:    1888
 k-point ** :   0.5000 0.5000 0.3974  plane waves:    1888
 k-point ** :   0.5000 0.5000 0.4103  plane waves:    1888
 k-point ** :   0.5000 0.5000 0.4231  plane waves:    1896
 k-point ** :   0.5000 0.5000 0.4359  plane waves:    1896
 k-point ** :   0.5000 0.5000 0.4487  plane waves:    1896
 k-point ** :   0.5000 0.5000 0.4615  plane waves:    1896
 k-point ** :   0.5000 0.5000 0.4744  plane waves:    1896
 k-point ** :   0.5000 0.5000 0.4872  plane waves:    1904
 k-point ** :   0.5000 0.5000 0.5000  plane waves:    1904
 k-point ** :   0.0000 0.5000 0.0000  plane waves:    1888
 k-point ** :   0.0128 0.5000 0.0000  plane waves:    1888
 k-point ** :   0.0256 0.5000 0.0000  plane waves:    1896
 k-point ** :   0.0385 0.5000 0.0000  plane waves:    1900
 k-point ** :   0.0513 0.5000 0.0000  plane waves:    1900
 k-point ** :   0.0641 0.5000 0.0000  plane waves:    1900
 k-point ** :   0.0769 0.5000 0.0000  plane waves:    1900
 k-point ** :   0.0897 0.5000 0.0000  plane waves:    1904
 k-point ** :   0.1026 0.5000 0.0000  plane waves:    1898
 k-point ** :   0.1154 0.5000 0.0000  plane waves:    1902
 k-point ** :   0.1282 0.5000 0.0000  plane waves:    1902
 k-point ** :   0.1410 0.5000 0.0000  plane waves:    1902
 k-point ** :   0.1538 0.5000 0.0000  plane waves:    1894
 k-point ** :   0.1667 0.5000 0.0000  plane waves:    1896
 k-point ** :   0.1795 0.5000 0.0000  plane waves:    1896
 k-point ** :   0.1923 0.5000 0.0000  plane waves:    1900
 k-point ** :   0.2051 0.5000 0.0000  plane waves:    1896
 k-point ** :   0.2179 0.5000 0.0000  plane waves:    1904
 k-point ** :   0.2308 0.5000 0.0000  plane waves:    1910
 k-point ** :   0.2436 0.5000 0.0000  plane waves:    1914
 k-point ** :   0.2564 0.5000 0.0000  plane waves:    1914
 k-point ** :   0.2692 0.5000 0.0000  plane waves:    1908
 k-point ** :   0.2821 0.5000 0.0000  plane waves:    1896
 k-point ** :   0.2949 0.5000 0.0000  plane waves:    1900
 k-point ** :   0.3077 0.5000 0.0000  plane waves:    1900
 k-point ** :   0.3205 0.5000 0.0000  plane waves:    1900
 k-point ** :   0.3333 0.5000 0.0000  plane waves:    1896
 k-point ** :   0.3462 0.5000 0.0000  plane waves:    1908
 k-point ** :   0.3590 0.5000 0.0000  plane waves:    1908
 k-point ** :   0.3718 0.5000 0.0000  plane waves:    1910
 k-point ** :   0.3846 0.5000 0.0000  plane waves:    1914
 k-point ** :   0.3974 0.5000 0.0000  plane waves:    1910
 k-point ** :   0.4103 0.5000 0.0000  plane waves:    1910
 k-point ** :   0.4231 0.5000 0.0000  plane waves:    1910
 k-point ** :   0.4359 0.5000 0.0000  plane waves:    1918
 k-point ** :   0.4487 0.5000 0.0000  plane waves:    1918
 k-point ** :   0.4615 0.5000 0.0000  plane waves:    1926
 k-point ** :   0.4744 0.5000 0.0000  plane waves:    1924
 k-point ** :   0.4872 0.5000 0.0000  plane waves:    1924
[...]
     37      26.0344      0.00000
     38      26.6803      0.00000
     39      26.7052      0.00000
     40      26.7635      0.00000
     41      30.2458      0.00000
     42      34.2244      0.00000
     43      34.4690      0.00000
     44      41.4728      0.00000
     45      49.9215      0.00000
     46      50.0157      0.00000

 k-point   317 :       0.0385    0.0385    0.0000
  band No.  band energies     occupation 
      1     -29.0556      2.00000
      2     -14.3087      2.00000
      3     -13.1031      2.00000
      4     -13.0980      2.00000
      5     -11.0893      2.00000
      6     -11.0843      2.00000
      7     -11.0731      2.00000
      8       0.1251      2.00000
      9       0.1551      2.00000
     10       0.1614      2.00000
     11       2.0563      2.00000
     12       2.0870      2.00000
     13       2.1406      2.00000
     14       2.8906      2.00000
     15       2.9356      2.00000
     16       2.9491      2.00000
     17       4.3519      1.98764
     18       4.3635      1.98447
     19       4.3988      1.97003
     20       6.5172      0.00000
     21       6.5748      0.00000
     22       8.8818      0.00000
     23       8.8846      0.00000
     24       9.9921      0.00000
     25      11.8749      0.00000
     26      11.8822      0.00000
     27      11.8998      0.00000
     28      18.4762      0.00000
     29      20.7593      0.00000
     30      20.8031      0.00000
     31      20.8524      0.00000
     32      24.1365      0.00000
     33      24.4997      0.00000
     34      24.5733      0.00000
     35      24.8027      0.00000
     36      24.9236      0.00000
     37      25.8323      0.00000
     38      26.7185      0.00000
     39      26.7242      0.00000
     40      26.7678      0.00000
     41      30.3373      0.00000
     42      34.2883      0.00000
     43      34.4783      0.00000
     44      41.8135      0.00000
     45      50.5242      0.00000
     46      50.5542      0.00000

 k-point   318 :       0.0256    0.0256    0.0000
  band No.  band energies     occupation 
      1     -29.0561      2.00000
      2     -14.3089      2.00000
      3     -13.0997      2.00000
      4     -13.0975      2.00000
      5     -11.0904      2.00000
      6     -11.0881      2.00000
      7     -11.0831      2.00000
      8       0.1462      2.00000
      9       0.1597      2.00000
     10       0.1625      2.00000
     11       2.1024      2.00000
     12       2.1163      2.00000
     13       2.1405      2.00000
     14       2.9426      2.00000
     15       2.9636      2.00000
     16       2.9698      2.00000
     17       4.3283      1.99239
     18       4.3335      1.99151
     19       4.3505      1.98799
     20       6.5010      0.00000
     21       6.5269      0.00000
     22       8.8517      0.00000
     23       8.8531      0.00000
     24       9.9521      0.00000
     25      11.8685      0.00000
     26      11.8717      0.00000
     27      11.8795      0.00000
     28      18.4716      0.00000
     29      20.7846      0.00000
     30      20.8052      0.00000
     31      20.8420      0.00000
     32      24.3354      0.00000
     33      24.5314      0.00000
     34      24.5702      0.00000
     35      24.9107      0.00000
     36      24.9661      0.00000
     37      25.6439      0.00000
     38      26.7342      0.00000
     39      26.7365      0.00000
     40      26.9958      0.00000
     41      30.5642      0.00000
     42      34.3553      0.00000
     43      34.4607      0.00000
     44      42.1563      0.00000
     45      51.0797      0.00000
     46      51.0850      0.00000

 k-point   319 :       0.0128    0.0128    0.0000
  band No.  band energies     occupation 
      1     -29.0564      2.00000
      2     -14.3090      2.00000
      3     -13.0977      2.00000
      4     -13.0971      2.00000
      5     -11.0910      2.00000
      6     -11.0904      2.00000
      7     -11.0891      2.00000
      8       0.1591      2.00000
      9       0.1625      2.00000
     10       0.1631      2.00000
     11       2.1308      2.00000
     12       2.1343      2.00000
     13       2.1404      2.00000
     14       2.9756      2.00000
     15       2.9810      2.00000
     16       2.9826      2.00000
     17       4.3137      1.99443
     18       4.3150      1.99426
     19       4.3195      1.99368
     20       6.4910      0.00000
     21       6.4976      0.00000
     22       8.8336      0.00000
     23       8.8340      0.00000
     24       9.9278      0.00000
     25      11.8646      0.00000
     26      11.8654      0.00000
     27      11.8674      0.00000
     28      18.4690      0.00000
     29      20.7997      0.00000
     30      20.8051      0.00000
     31      20.8381      0.00000
     32      24.4918      0.00000
     33      24.5501      0.00000
     34      24.5623      0.00000
     35      24.9779      0.00000
     36      24.9919      0.00000
     37      25.4925      0.00000
     38      26.7427      0.00000
     39      26.7426      0.00000
     40      26.8673      0.00000
     41      30.6290      0.00000
     42      34.3702      0.00000
     43      34.4079      0.00000
     44      42.4962      0.00000
     45      51.5955      0.00000
     46      51.6032      0.00000

 k-point   320 :       0.0000    0.0000    0.0000
  band No.  band energies     occupation 
      1     -29.0565      2.00000
      2     -14.3091      2.00000
      3     -13.0970      2.00000
      4     -13.0970      2.00000
      5     -11.0912      2.00000
      6     -11.0912      2.00000
      7     -11.0911      2.00000
      8       0.1633      2.00000
      9       0.1633      2.00000
     10       0.1634      2.00000
     11       2.1404      2.00000
     12       2.1404      2.00000
     13       2.1404      2.00000
     14       2.9865      2.00000
     15       2.9865      2.00000
     16       2.9865      2.00000
     17       4.3088      1.99499
     18       4.3088      1.99499
     19       4.3088      1.99499
     20       6.4877      0.00000
     21       6.4877      0.00000
     22       8.8276      0.00000
     23       8.8276      0.00000
     24       9.9196      0.00000
     25      11.8633      0.00000
     26      11.8633      0.00000
     27      11.8633      0.00000
     28      18.4684      0.00000
     29      20.8047      0.00000
     30      20.8047      0.00000
     31      20.8378      0.00000
     32      24.5561      0.00000
     33      24.5563      0.00000
     34      24.5573      0.00000
     35      25.0005      0.00000
     36      25.0005      0.00000
     37      25.4294      0.00000
     38      26.7450      0.00000
     39      26.7494      0.00000
     40      26.7641      0.00000
     41      30.7580      0.00000
     42      34.3531      0.00000
     43      34.3523      0.00000
     44      42.8330      0.00000
     45      52.0998      0.00000
     46      52.1083      0.00000


--------------------------------------------------------------------------------------------------------


 soft charge-density along one line, spin component           1
         0         1         2         3         4         5         6         7         8         9
x     0.0000    0.0000    0.0000    0.0000    0.0000    0.0000    0.0000    0.0000    0.0000    0.0000
x     0.0000    0.0000    0.0000    0.0000    0.0000    0.0000    0.0000    0.0000    0.0000    0.0000
x     0.0000    0.0000    0.0000    0.0000    0.0000    0.0000
y     0.0000    0.0000    0.0000    0.0000    0.0000    0.0000    0.0000    0.0000    0.0000    0.0000
y     0.0000    0.0000    0.0000    0.0000    0.0000    0.0000    0.0000    0.0000    0.0000    0.0000
y     0.0000    0.0000    0.0000    0.0000    0.0000    0.0000
z     0.0000    0.0000    0.0000    0.0000    0.0000    0.0000    0.0000    0.0000    0.0000    0.0000
z     0.0000    0.0000    0.0000    0.0000    0.0000    0.0000    0.0000    0.0000    0.0000    0.0000
z     0.0000    0.0000    0.0000    0.0000    0.0000    0.0000
 total charge-density along one line
x    33.0000    0.0000   -1.6403    0.0000   11.4756   -0.0000   -1.2326    0.0000    1.3098    0.0000
x    -0.1588    0.0000    0.0437    0.0000    0.0226    0.0000   -0.0330   -0.0000    0.0086    0.0000
x    -0.0057    0.0000   -0.0003   -0.0000    0.0016    0.0000   -0.0002   -0.0000   -0.0005    0.0000
x     0.0002    0.0000    0.0000   -0.0000   -0.0001   -0.0000    0.0001    0.0000    0.0000   -0.0000
x    -0.0001   -0.0000    0.0000   -0.0000    0.0000   -0.0000   -0.0000    0.0000   -0.0000    0.0000
y    33.0000    0.0000   -1.6403    0.0000   11.4756   -0.0000   -1.2326    0.0000    1.3098    0.0000
y    -0.1588   -0.0000    0.0437    0.0000    0.0226    0.0000   -0.0330   -0.0000    0.0086    0.0000
y    -0.0057   -0.0000   -0.0003   -0.0000    0.0016    0.0000   -0.0002   -0.0000   -0.0005   -0.0000
y     0.0002    0.0000    0.0000   -0.0000   -0.0001    0.0000    0.0001    0.0000    0.0000   -0.0000
y    -0.0001    0.0000    0.0000    0.0000    0.0000   -0.0000   -0.0000    0.0000   -0.0000    0.0000
z    33.0000    0.0000   -1.6403    0.0000   11.4756   -0.0000   -1.2326    0.0000    1.3098    0.0000
z    -0.1588   -0.0000    0.0437    0.0000    0.0226    0.0000   -0.0330   -0.0000    0.0086    0.0000
z    -0.0057    0.0000   -0.0003   -0.0000    0.0016    0.0000   -0.0002   -0.0000   -0.0005   -0.0000
z     0.0002    0.0000    0.0000   -0.0000   -0.0001   -0.0000    0.0001    0.0000    0.0000   -0.0000
z    -0.0001    0.0000    0.0000   -0.0000    0.0000   -0.0000   -0.0000    0.0000   -0.0000    0.0000
 
 pseudopotential strength for first ion, spin component:           1
-11.985  -2.442  -0.000  -0.000  -0.000  -0.000  -0.000  -0.000
 -2.442  -2.273  -0.000  -0.000  -0.000  -0.000  -0.000  -0.000
 -0.000  -0.000 -14.457   0.000  -0.000 -14.190   0.000  -0.000
 -0.000  -0.000   0.000 -14.457  -0.000   0.000 -14.190  -0.000
 -0.000  -0.000  -0.000  -0.000 -14.457  -0.000  -0.000 -14.190
 -0.000  -0.000 -14.190   0.000  -0.000 -13.925   0.000  -0.000
 -0.000  -0.000   0.000 -14.190  -0.000   0.000 -13.925  -0.000
 -0.000  -0.000  -0.000  -0.000 -14.190  -0.000  -0.000 -13.925
 -0.000  -0.000  -0.000   0.000  -0.000  -0.000   0.000  -0.000
  0.000   0.000  -0.000  -0.000   0.000  -0.000  -0.000   0.000
  0.000   0.000   0.000  -0.000   0.000   0.000  -0.000   0.000
 -0.000  -0.000   0.000  -0.000  -0.000   0.000  -0.000  -0.000
 -0.000  -0.000   0.000   0.000  -0.000   0.000   0.000  -0.000
 -0.000  -0.000  -0.000   0.000  -0.000  -0.000   0.000  -0.000
  0.000   0.000  -0.000  -0.000   0.000  -0.000  -0.000   0.000
  0.000   0.000   0.000  -0.000   0.000   0.000  -0.000   0.000
 -0.000  -0.000   0.000  -0.000  -0.000   0.000  -0.000  -0.000
 -0.000  -0.000   0.000   0.000  -0.000   0.000   0.000  -0.000
 total augmentation occupancy for first ion, spin component:           1
  2.000   0.000   0.000   0.000   0.000   0.000   0.000   0.000   0.000   0.000   0.000   0.000   0.000   0.000   0.000   0.000
  0.000   1.999   0.000   0.000   0.000   0.000   0.000   0.000   0.000   0.000   0.000   0.000   0.000   0.000   0.000   0.000
  0.000   0.000   2.000   0.000   0.000   0.000   0.000   0.000   0.000   0.000   0.000   0.000   0.000   0.000   0.000   0.000
  0.000   0.000   0.000   2.000   0.000   0.000   0.000   0.000   0.000   0.000   0.000   0.000   0.000   0.000   0.000   0.000
  0.000   0.000   0.000   0.000   2.000   0.000   0.000   0.000   0.000   0.000   0.000   0.000   0.000   0.000   0.000   0.000
  0.000   0.000   0.000   0.000   0.000   0.000   0.000   0.000   0.000   0.000   0.000   0.000   0.000   0.000   0.000   0.000
  0.000   0.000   0.000   0.000   0.000   0.000   0.000   0.000   0.000   0.000   0.000   0.000   0.000   0.000   0.000   0.000
  0.000   0.000   0.000   0.000   0.000   0.000   0.000   0.000   0.000   0.000   0.000   0.000   0.000   0.000   0.000   0.000
  0.000   0.000   0.000   0.000   0.000   0.000   0.000   0.000   0.000   0.000   0.000   0.000   0.000   0.000   0.000   0.000
  0.000   0.000   0.000   0.000   0.000   0.000   0.000   0.000   0.000   0.000   0.000   0.000   0.000   0.000   0.000   0.000
  0.000   0.000   0.000   0.000   0.000   0.000   0.000   0.000   0.000   0.000   0.000   0.000   0.000   0.000   0.000   0.000
  0.000   0.000   0.000   0.000   0.000   0.000   0.000   0.000   0.000   0.000   0.000   0.000   0.000   0.000   0.000   0.000
  0.000   0.000   0.000   0.000   0.000   0.000   0.000   0.000   0.000   0.000   0.000   0.000   0.000   0.000   0.000   0.000
  0.000   0.000   0.000   0.000   0.000   0.000   0.000   0.000   0.000   0.000   0.000   0.000   0.000   0.000   0.000   0.000
  0.000   0.000   0.000   0.000   0.000   0.000   0.000   0.000   0.000   0.000   0.000   0.000   0.000   0.000   0.000   0.000
  0.000   0.000   0.000   0.000   0.000   0.000   0.000   0.000   0.000   0.000   0.000   0.000   0.000   0.000   0.000   0.000
  0.000   0.000   0.000   0.000   0.000   0.000   0.000   0.000   0.000   0.000   0.000   0.000   0.000   0.000   0.000   0.000
  0.000   0.000   0.000   0.000   0.000   0.000   0.000   0.000   0.000   0.000   0.000   0.000   0.000   0.000   0.000   0.000


------------------------ aborting loop because EDIFF is reached ----------------------------------------


 


 total charge     
 
# of ion       s       p       d       tot
------------------------------------------
    1        1.996   5.828   0.195   8.019
    2        0.525   1.163   3.460   5.149
    3        1.528   3.764   0.000   5.292
    4        1.571   3.289   0.000   4.859
    5        1.554   3.481   0.000   5.035
--------------------------------------------------
tot          7.174  17.525   3.655  28.354
 
    CHARGE:  cpu time    1.2343: real time    1.1621
    FORLOC:  cpu time    0.0051: real time    0.0051
    FORNL :  cpu time    8.1783: real time    8.1990
    STRESS:  cpu time   21.0985: real time   11.7346
    FORCOR:  cpu time    0.0461: real time    0.0462
    FORHAR:  cpu time    0.0132: real time    0.0132
    OFIELD:  cpu time    0.0001: real time    0.0001

  FORCE on cell =-STRESS in cart. coord.  units (eV):
  Direction    XX          YY          ZZ          XY          YZ          ZX
  --------------------------------------------------------------------------------------
  Alpha Z   180.95686   180.95686   180.95686
  Ewald    -682.63392  -682.63392  -682.63392    -0.00000    -0.00000    -0.00000
  Hartree   143.57502   143.57502   143.57502    -0.00000    -0.00000    -0.00000
  E(xc)    -149.30657  -149.30657  -149.30657     0.00000     0.00000    -0.00000
  Local       7.94186     7.94186     7.94186     0.00000    -0.00000     0.00000
  n-local  -110.44370  -112.31527  -107.13934    -0.28758    -0.09231    -0.18366
  augment    44.43577    44.43577    44.43577     0.00000     0.00000     0.00000
  Kinetic   569.38959   555.42562   574.01398    -1.08083    -0.40212    -0.84312
  Fock        0.00000     0.00000     0.00000     0.00000     0.00000     0.00000
  -------------------------------------------------------------------------------------
  Total       1.27932     1.27932     1.27932     0.00000    -0.00000    -0.00000
  in kB      36.01511    36.01511    36.01511     0.00000    -0.00000    -0.00000
  external pressure =       36.02 kB  Pullay stress =        0.00 kB


 VOLUME and BASIS-vectors are now :
 -----------------------------------------------------------------------------
  energy-cutoff  :      600.00
  volume of cell :       56.91
      direct lattice vectors                 reciprocal lattice vectors
     3.846520000  0.000000000  0.000000000     0.259975250  0.000000000  0.000000000
     0.000000000  3.846520000  0.000000000     0.000000000  0.259975250  0.000000000
     0.000000000  0.000000000  3.846520000     0.000000000  0.000000000  0.259975250

  length of vectors
     3.846520000  3.846520000  3.846520000     0.259975250  0.259975250  0.259975250


 FORCES acting on ions
    electron-ion (+dipol)            ewald-force                    non-local-force                 convergence-correction
 -----------------------------------------------------------------------------------------------
   -.307E-13 0.311E-15 0.112E-14   -.479E-14 -.313E-14 -.318E-14   0.000E+00 0.000E+00 0.000E+00   -.983E-13 -.694E-13 -.179E-12
   0.243E-13 0.405E-13 0.386E-13   -.289E-14 -.187E-14 0.208E-15   0.000E+00 0.000E+00 0.000E+00   0.214E-13 -.934E-14 0.763E-14
   0.120E-12 0.179E-12 -.106E-13   0.406E-14 -.102E-14 0.290E-15   0.000E+00 0.000E+00 0.000E+00   -.425E-13 0.232E-15 -.132E-13
   0.120E-12 -.116E-13 0.179E-12   0.190E-14 0.339E-14 0.147E-14   0.000E+00 0.000E+00 0.000E+00   -.225E-13 0.168E-13 0.585E-13
   -.558E-13 0.180E-12 0.180E-12   0.166E-14 0.231E-14 0.145E-14   0.000E+00 0.000E+00 0.000E+00   -.457E-13 0.322E-13 0.626E-13
 -----------------------------------------------------------------------------------------------
   0.179E-12 0.389E-12 0.389E-12   -.550E-16 -.318E-15 0.244E-15   0.000E+00 0.000E+00 0.000E+00   -.188E-12 -.296E-13 -.633E-13
 
 
 POSITION                                       TOTAL-FORCE (eV/Angst)
 -----------------------------------------------------------------------------------
      0.00000      0.00000      0.00000         0.000000      0.000000      0.000000
      1.92326      1.92326      1.92326         0.000000      0.000000      0.000000
      1.92326      1.92326      0.00000         0.000000      0.000000      0.000000
      1.92326      0.00000      1.92326         0.000000      0.000000      0.000000
      0.00000      1.92326      1.92326         0.000000      0.000000      0.000000
 -----------------------------------------------------------------------------------
    total drift:                               -0.000000      0.000000      0.000000


--------------------------------------------------------------------------------------------------------



  FREE ENERGIE OF THE ION-ELECTRON SYSTEM (eV)
  ---------------------------------------------------
  free  energy   TOTEN  =       -40.05746879 eV

  energy  without entropy=      -40.03090719  energy(sigma->0) =      -40.04418799
 


--------------------------------------------------------------------------------------------------------


    POTLOK:  cpu time    0.0928: real time    0.0932


--------------------------------------------------------------------------------------------------------


 writing wavefunctions
     LOOP+:  cpu time  665.3872: real time  338.0995
    4ORBIT:  cpu time    0.0000: real time    0.0000
 


 total charge     
 
# of ion       s       p       d       tot
------------------------------------------
    1        1.996   5.828   0.195   8.019
    2        0.525   1.163   3.460   5.149
    3        1.528   3.764   0.000   5.292
    4        1.571   3.289   0.000   4.859
    5        1.554   3.481   0.000   5.035
--------------------------------------------------
tot          7.174  17.525   3.655  28.354
 

 total amount of memory used by VASP MPI-rank0   775449. kBytes
=======================================================================

   base      :      30000. kBytes
   nonl-proj :     267649. kBytes
   grid      :       7861. kBytes
   one-center:         77. kBytes
   wavefun   :     469862. kBytes
 
  
  
 General timing and accounting informations for this job:
 ========================================================
  
                  Total CPU time used (sec):      671.460
                            User time (sec):      667.166
                          System time (sec):        4.294
                         Elapsed time (sec):      343.206
  
                   Maximum memory used (kb):   786726912.
                   Average memory used (kb):           0.
  
                          Minor page faults:       237804
                          Major page faults:          781
                 Voluntary context switches:         2240
