 vasp.5.4.4.18Apr17-6-g9f103f2a35 (build Sep 25 2018 16:35:25) complex          
  
 executed on             LinuxIFC date 2019.01.29  20:09:33
 running on    5 total cores
 distrk:  each k-point on    5 cores,    1 groups
 distr:  one band on NCORES_PER_BAND=   1 cores,    5 groups


--------------------------------------------------------------------------------------------------------


 INCAR:
 POTCAR:    PAW Sr_sv 10Feb1998                   
 POTCAR:    PAW V 07Aug2001                       
 POTCAR:    PAW O 22Mar2012                       

 ----------------------------------------------------------------------------- 
|                                                                             |
|           W    W    AA    RRRRR   N    N  II  N    N   GGGG   !!!           |
|           W    W   A  A   R    R  NN   N  II  NN   N  G    G  !!!           |
|           W    W  A    A  R    R  N N  N  II  N N  N  G       !!!           |
|           W WW W  AAAAAA  RRRRR   N  N N  II  N  N N  G  GGG   !            |
|           WW  WW  A    A  R   R   N   NN  II  N   NN  G    G                |
|           W    W  A    A  R    R  N    N  II  N    N   GGGG   !!!           |
|                                                                             |
|      For optimal performance we recommend to set                            |
|        NCORE= 4 - approx SQRT( number of cores)                             |
|      NCORE specifies how many cores store one orbital (NPAR=cpu/NCORE).     |
|      This setting can  greatly improve the performance of VASP for DFT.     |
|      The default,   NCORE=1            might be grossly inefficient         |
|      on modern multi-core architectures or massively parallel machines.     |
|      Do your own testing !!!!                                               |
|      Unfortunately you need to use the default for GW and RPA calculations. |
|      (for HF NCORE is supported but not extensively tested yet)             |
|                                                                             |
 ----------------------------------------------------------------------------- 

 POTCAR:    PAW Sr_sv 10Feb1998                   
   VRHFIN =Sr: 3s3p4s                                                           
   LEXCH  = CA                                                                  
   EATOM  =   845.5689 eV,   62.1476 Ry                                         
                                                                                
   TITEL  = PAW Sr_sv 10Feb1998                                                 
   LULTRA =        F    use ultrasoft PP ?                                      
   IUNSCR =        1    unscreen: 0-lin 1-nonlin 2-no                           
   RPACOR =    2.200    partial core radius                                     
   POMASS =   87.620; ZVAL   =   10.000    mass and valenz                      
   RCORE  =    2.500    outmost cutoff radius                                   
   RWIGS  =    4.040; RWIGS  =    2.138    wigner-seitz radius (au A)           
   ENMAX  =  226.327; ENMIN  =  169.745 eV                                      
   RCLOC  =    2.201    cutoff for local pot                                    
   LCOR   =        T    correct aug charges                                     
   LPAW   =        T    paw PP                                                  
   EAUG   =  366.804                                                            
   DEXC   =    0.000                                                            
   RMAX   =    2.547    core radius for proj-oper                               
   RAUG   =    1.300    factor for augmentation sphere                          
   RDEP   =    2.562    radius for radial grids                                 
   RDEPT  =    2.145    core radius for aug-charge                              
                                                                                
   Atomic configuration                                                         
   10 entries                                                                   
     n  l   j            E        occ.                                          
     1  0  0.50    -15851.8828   2.0000                                         
     2  0  0.50     -2148.9480   2.0000                                         
     2  1  1.50     -1912.9353   6.0000                                         
     3  0  0.50      -331.8462   2.0000                                         
     3  1  1.50      -255.3856   6.0000                                         
     3  2  2.50      -128.2784  10.0000                                         
     4  0  0.50       -40.8303   2.0000                                         
     5  0  0.50        -3.6422   1.9990                                         
     4  1  1.50       -22.8493   6.0000                                         
     4  2  1.50        -1.4198   0.0010                                         
   Description                                                                  
     l       E           TYP  RCUT    TYP  RCUT                                 
     0    -40.8303494     23  2.500                                             
     0     -3.6421860     23  2.500                                             
     1    -22.8492718     23  2.500                                             
     1    -24.2098544     23  2.500                                             
     2     -1.4197899     23  2.500                                             
     2      0.0045700     23  2.500                                             
  local pseudopotential read in
  partial core-charges read in
  partial kinetic energy density read in
  atomic valenz-charges read in
  non local Contribution for L=           0  read in
    real space projection operators read in
  non local Contribution for L=           0  read in
    real space projection operators read in
  non local Contribution for L=           1  read in
    real space projection operators read in
  non local Contribution for L=           1  read in
    real space projection operators read in
  non local Contribution for L=           2  read in
    real space projection operators read in
  non local Contribution for L=           2  read in
    real space projection operators read in
    PAW grid and wavefunctions read in
 
   number of l-projection  operators is LMAX  =           6
   number of lm-projection operators is LMMAX =          18
 
 POTCAR:    PAW V 07Aug2001                       
   VRHFIN =V: d4 s1                                                             
   LEXCH  = CA                                                                  
   EATOM  =   172.4520 eV,   12.6749 Ry                                         
                                                                                
   TITEL  = PAW V 07Aug2001                                                     
   LULTRA =        F    use ultrasoft PP ?                                      
   IUNSCR =        1    unscreen: 0-lin 1-nonlin 2-no                           
   RPACOR =    2.000    partial core radius                                     
   POMASS =   50.941; ZVAL   =    5.000    mass and valenz                      
   RCORE  =    2.700    outmost cutoff radius                                   
   RWIGS  =    2.500; RWIGS  =    1.323    wigner-seitz radius (au A)           
   ENMAX  =  192.706; ENMIN  =  144.529 eV                                      
   RCLOC  =    1.779    cutoff for local pot                                    
   LCOR   =        T    correct aug charges                                     
   LPAW   =        T    paw PP                                                  
   EAUG   =  358.662                                                            
   DEXC   =    0.000                                                            
   RMAX   =    2.768    core radius for proj-oper                               
   RAUG   =    1.300    factor for augmentation sphere                          
   RDEP   =    2.762    radius for radial grids                                 
   RDEPT  =    2.240    core radius for aug-charge                              
                                                                                
   Atomic configuration                                                         
    9 entries                                                                   
     n  l   j            E        occ.                                          
     1  0  0.50     -5334.6266   2.0000                                         
     2  0  0.50      -595.8619   2.0000                                         
     2  1  1.50      -498.2253   6.0000                                         
     3  0  0.50       -66.0397   2.0000                                         
     3  1  1.50       -40.3979   6.0000                                         
     3  2  2.50        -2.6339   4.0000                                         
     4  0  0.50        -4.0392   1.0000                                         
     4  1  0.50        -4.0817   0.0000                                         
     4  3  2.50        -1.3606   0.0000                                         
   Description                                                                  
     l       E           TYP  RCUT    TYP  RCUT                                 
     2     -2.6338511     23  2.700                                             
     2     -3.9944337     23  2.700                                             
     0     -4.0392463     23  2.700                                             
     0     27.2116520     23  2.700                                             
     1     -4.0817478     23  2.700                                             
     1     27.2116520     23  2.700                                             
  local pseudopotential read in
  partial core-charges read in
  partial kinetic energy density read in
  atomic valenz-charges read in
  non local Contribution for L=           2  read in
    real space projection operators read in
  non local Contribution for L=           2  read in
    real space projection operators read in
  non local Contribution for L=           0  read in
    real space projection operators read in
  non local Contribution for L=           0  read in
    real space projection operators read in
  non local Contribution for L=           1  read in
    real space projection operators read in
  non local Contribution for L=           1  read in
    real space projection operators read in
    PAW grid and wavefunctions read in
 
   number of l-projection  operators is LMAX  =           6
   number of lm-projection operators is LMMAX =          18
 
 POTCAR:    PAW O 22Mar2012                       
   VRHFIN =O: s2p4                                                              
   LEXCH  = CA                                                                  
   EATOM  =   431.4380 eV,   31.7098 Ry                                         
                                                                                
   TITEL  = PAW O 22Mar2012                                                     
   LULTRA =        F    use ultrasoft PP ?                                      
   IUNSCR =        1    unscreen: 0-lin 1-nonlin 2-no                           
   RPACOR =    1.200    partial core radius                                     
   POMASS =   16.000; ZVAL   =    6.000    mass and valenz                      
   RCORE  =    1.520    outmost cutoff radius                                   
   RWIGS  =    1.550; RWIGS  =    0.820    wigner-seitz radius (au A)           
   ENMAX  =  400.000; ENMIN  =  300.000 eV                                      
   ICORE  =        2    local potential                                         
   LCOR   =        T    correct aug charges                                     
   LPAW   =        T    paw PP                                                  
   EAUG   =  605.392                                                            
   DEXC   =    0.000                                                            
   RMAX   =    1.553    core radius for proj-oper                               
   RAUG   =    1.300    factor for augmentation sphere                          
   RDEP   =    1.550    radius for radial grids                                 
   RDEPT  =    1.329    core radius for aug-charge                              
                                                                                
   Atomic configuration                                                         
    4 entries                                                                   
     n  l   j            E        occ.                                          
     1  0  0.50      -510.4605   2.0000                                         
     2  0  0.50       -23.7367   2.0000                                         
     2  1  0.50        -9.1995   4.0000                                         
     3  2  1.50        -9.5241   0.0000                                         
   Description                                                                  
     l       E           TYP  RCUT    TYP  RCUT                                 
     0    -23.7366993     23  1.200                                             
     0     -9.5240782     23  1.200                                             
     1     -9.1994509     23  1.520                                             
     1      8.1634956     23  1.520                                             
     2     -9.5240782      7  1.500                                             
  local pseudopotential read in
  partial core-charges read in
  partial kinetic energy density read in
  kinetic energy density of atom read in
  atomic valenz-charges read in
  non local Contribution for L=           0  read in
    real space projection operators read in
  non local Contribution for L=           0  read in
    real space projection operators read in
  non local Contribution for L=           1  read in
    real space projection operators read in
  non local Contribution for L=           1  read in
    real space projection operators read in
    PAW grid and wavefunctions read in
 
   number of l-projection  operators is LMAX  =           4
   number of lm-projection operators is LMMAX =           8
 

 ----------------------------------------------------------------------------- 
|                                                                             |
|  ADVICE TO THIS USER RUNNING 'VASP/VAMP'   (HEAR YOUR MASTER'S VOICE ...):  |
|                                                                             |
|      You enforced a specific xc-type in the INCAR file,                     |
|      a different type was found on the POTCAR file                          |
|          I HOPE YOU KNOW, WHAT YOU ARE  DOING                               |
|                                                                             |
 ----------------------------------------------------------------------------- 

  PAW Sr_sv 10Feb1998                   :
 energy of atom  1       EATOM= -845.5689
 kinetic energy error for atom=    0.0006 (will be added to EATOM!!)
  PAW V 07Aug2001                       :
 energy of atom  2       EATOM= -172.4520
 kinetic energy error for atom=    0.0002 (will be added to EATOM!!)
  PAW O 22Mar2012                       :
 energy of atom  3       EATOM= -431.4380
 kinetic energy error for atom=    0.0165 (will be added to EATOM!!)
 
 
 POSCAR: Sr V O                                  
  positions in direct lattice
  No initial velocities read in
 exchange correlation table for  LEXCH =       14
   RHO(1)=    0.500       N(1)  =     2000
   RHO(2)=  100.500       N(2)  =     4000
 


--------------------------------------------------------------------------------------------------------


 ion  position               nearest neighbor table
   1  0.000  0.000  0.000-   3 2.72   4 2.72   5 2.72   4 2.72   5 2.72   3 2.72   5 2.72   5 2.72
                             3 2.72   4 2.72   4 2.72   3 2.72   2 3.33   2 3.33   2 3.33   2 3.33
   2  0.500  0.500  0.500-   3 1.92   4 1.92   5 1.92   3 1.92   4 1.92   5 1.92   1 3.33   1 3.33
                             1 3.33   1 3.33   1 3.33   1 3.33   1 3.33   1 3.33
   3  0.500  0.500  0.000-   2 1.92   2 1.92   1 2.72   1 2.72   1 2.72   1 2.72
   4  0.500  0.000  0.500-   2 1.92   2 1.92   1 2.72   1 2.72   1 2.72   1 2.72
   5  0.000  0.500  0.500-   2 1.92   2 1.92   1 2.72   1 2.72   1 2.72   1 2.72
 
  LATTYP: Found a simple cubic cell.
 ALAT       =     3.8465200000
  
  Lattice vectors:
  
 A1 = (   3.8465200000,   0.0000000000,   0.0000000000)
 A2 = (   0.0000000000,   3.8465200000,   0.0000000000)
 A3 = (   0.0000000000,   0.0000000000,   3.8465200000)


Analysis of symmetry for initial positions (statically):
=====================================================================
 Subroutine PRICEL returns:
 Original cell was already a primitive cell.
 

 Routine SETGRP: Setting up the symmetry group for a 
 simple cubic supercell.


 Subroutine GETGRP returns: Found 48 space group operations
 (whereof 48 operations were pure point group operations)
 out of a pool of 48 trial point group operations.


The static configuration has the point symmetry O_h .


Analysis of symmetry for dynamics (positions and initial velocities):
=====================================================================
 Subroutine PRICEL returns:
 Original cell was already a primitive cell.
 

 Routine SETGRP: Setting up the symmetry group for a 
 simple cubic supercell.


 Subroutine GETGRP returns: Found 48 space group operations
 (whereof 48 operations were pure point group operations)
 out of a pool of 48 trial point group operations.


The dynamic configuration has the point symmetry O_h .


 Subroutine INISYM returns: Found 48 space group operations
 (whereof 48 operations are pure point group operations),
 and found     1 'primitive' translations

 
 
 KPOINTS: KPOINTS generated by PyProcar           
  interpolating k-points between supplied coordinates
  k-points in reciprocal lattice
Space group operators:
 irot       det(A)        alpha          n_x          n_y          n_z        tau_x        tau_y        tau_z
    1     1.000000     0.000000     1.000000     0.000000     0.000000     0.000000     0.000000     0.000000
    2    -1.000000     0.000000     1.000000     0.000000     0.000000     0.000000     0.000000     0.000000
    3     1.000000   120.000000    -0.577350    -0.577350    -0.577350     0.000000     0.000000     0.000000
    4    -1.000000   120.000000    -0.577350    -0.577350    -0.577350     0.000000     0.000000     0.000000
    5     1.000000   120.000000     0.577350     0.577350     0.577350     0.000000     0.000000     0.000000
    6    -1.000000   120.000000     0.577350     0.577350     0.577350     0.000000     0.000000     0.000000
    7     1.000000    90.000000     0.000000     0.000000    -1.000000     0.000000     0.000000     0.000000
    8    -1.000000    90.000000     0.000000     0.000000    -1.000000     0.000000     0.000000     0.000000
    9     1.000000   180.000000     0.000000     0.707107     0.707107     0.000000     0.000000     0.000000
   10    -1.000000   180.000000     0.000000     0.707107     0.707107     0.000000     0.000000     0.000000
   11     1.000000    90.000000     0.000000     1.000000     0.000000     0.000000     0.000000     0.000000
   12    -1.000000    90.000000     0.000000     1.000000     0.000000     0.000000     0.000000     0.000000
   13     1.000000   180.000000     0.000000     0.000000     1.000000     0.000000     0.000000     0.000000
   14    -1.000000   180.000000     0.000000     0.000000     1.000000     0.000000     0.000000     0.000000
   15     1.000000   120.000000    -0.577350     0.577350     0.577350     0.000000     0.000000     0.000000
   16    -1.000000   120.000000    -0.577350     0.577350     0.577350     0.000000     0.000000     0.000000
   17     1.000000   120.000000    -0.577350     0.577350    -0.577350     0.000000     0.000000     0.000000
   18    -1.000000   120.000000    -0.577350     0.577350    -0.577350     0.000000     0.000000     0.000000
   19     1.000000    90.000000     0.000000     0.000000     1.000000     0.000000     0.000000     0.000000
   20    -1.000000    90.000000     0.000000     0.000000     1.000000     0.000000     0.000000     0.000000
   21     1.000000    90.000000    -1.000000     0.000000     0.000000     0.000000     0.000000     0.000000
   22    -1.000000    90.000000    -1.000000     0.000000     0.000000     0.000000     0.000000     0.000000
   23     1.000000   180.000000     0.707107     0.000000     0.707107     0.000000     0.000000     0.000000
   24    -1.000000   180.000000     0.707107     0.000000     0.707107     0.000000     0.000000     0.000000
   25     1.000000   120.000000     0.577350    -0.577350     0.577350     0.000000     0.000000     0.000000
   26    -1.000000   120.000000     0.577350    -0.577350     0.577350     0.000000     0.000000     0.000000
   27     1.000000   120.000000    -0.577350    -0.577350     0.577350     0.000000     0.000000     0.000000
   28    -1.000000   120.000000    -0.577350    -0.577350     0.577350     0.000000     0.000000     0.000000
   29     1.000000   180.000000     1.000000     0.000000     0.000000     0.000000     0.000000     0.000000
   30    -1.000000   180.000000     1.000000     0.000000     0.000000     0.000000     0.000000     0.000000
   31     1.000000    90.000000     0.000000    -1.000000     0.000000     0.000000     0.000000     0.000000
   32    -1.000000    90.000000     0.000000    -1.000000     0.000000     0.000000     0.000000     0.000000
   33     1.000000   180.000000     0.707107     0.707107     0.000000     0.000000     0.000000     0.000000
   34    -1.000000   180.000000     0.707107     0.707107     0.000000     0.000000     0.000000     0.000000
   35     1.000000    90.000000     1.000000     0.000000     0.000000     0.000000     0.000000     0.000000
   36    -1.000000    90.000000     1.000000     0.000000     0.000000     0.000000     0.000000     0.000000
   37     1.000000   120.000000     0.577350    -0.577350    -0.577350     0.000000     0.000000     0.000000
   38    -1.000000   120.000000     0.577350    -0.577350    -0.577350     0.000000     0.000000     0.000000
   39     1.000000   180.000000     0.000000     1.000000     0.000000     0.000000     0.000000     0.000000
   40    -1.000000   180.000000     0.000000     1.000000     0.000000     0.000000     0.000000     0.000000
   41     1.000000   120.000000     0.577350     0.577350    -0.577350     0.000000     0.000000     0.000000
   42    -1.000000   120.000000     0.577350     0.577350    -0.577350     0.000000     0.000000     0.000000
   43     1.000000   180.000000     0.000000    -0.707107     0.707107     0.000000     0.000000     0.000000
   44    -1.000000   180.000000     0.000000    -0.707107     0.707107     0.000000     0.000000     0.000000
   45     1.000000   180.000000     0.707107    -0.707107     0.000000     0.000000     0.000000     0.000000
   46    -1.000000   180.000000     0.707107    -0.707107     0.000000     0.000000     0.000000     0.000000
   47     1.000000   180.000000     0.707107     0.000000    -0.707107     0.000000     0.000000     0.000000
   48    -1.000000   180.000000     0.707107     0.000000    -0.707107     0.000000     0.000000     0.000000

 ----------------------------------------------------------------------------- 
|                                                                             |
|           W    W    AA    RRRRR   N    N  II  N    N   GGGG   !!!           |
|           W    W   A  A   R    R  NN   N  II  NN   N  G    G  !!!           |
|           W    W  A    A  R    R  N N  N  II  N N  N  G       !!!           |
|           W WW W  AAAAAA  RRRRR   N  N N  II  N  N N  G  GGG   !            |
|           WW  WW  A    A  R   R   N   NN  II  N   NN  G    G                |
|           W    W  A    A  R    R  N    N  II  N    N   GGGG   !!!           |
|                                                                             |
|      The number of bands has been changed from the values supplied          |
|      in the INCAR file. This is a result of running the parallel version.   |
|      The orbitals not found in the WAVECAR file will be initialized with    |
|      random numbers, which is usually adequate. For correlated              |
|      calculations, however, you should redo the groundstate calculation.    |
|      I found NBANDS    =       46  now  NBANDS  =      50                   |
|                                                                             |
 ----------------------------------------------------------------------------- 



--------------------------------------------------------------------------------------------------------




 Dimension of arrays:
   k-points           NKPTS =    160   k-points in BZ     NKDIM =    160   number of bands    NBANDS=     50
   number of dos      NEDOS =    301   number of ions     NIONS =      5
   non local maximal  LDIM  =      6   non local SUM 2l+1 LMDIM =     18
   total plane-waves  NPLWV =  13824
   max r-space proj   IRMAX =      1   max aug-charges    IRDMAX= 118030
   dimension x,y,z NGX =    24 NGY =   24 NGZ =   24
   dimension x,y,z NGXF=    48 NGYF=   48 NGZF=   48
   support grid    NGXF=    96 NGYF=   96 NGZF=   96
   ions per type =               1   1   3
   NGX,Y,Z   is equivalent  to a cutoff of  10.37, 10.37, 10.37 a.u.
   NGXF,Y,Z  is equivalent  to a cutoff of  20.75, 20.75, 20.75 a.u.

 SYSTEM =  SrVO3 	                                 
 POSCAR =  Sr V O                                  

 Startparameter for this run:
   NWRITE =      2    write-flag & timer
   PREC   = normal    normal or accurate (medium, high low for compatibility)
   ISTART =      1    job   : 0-new  1-cont  2-samecut
   ICHARG =     11    charge: 1-file 2-atom 10-const
   ISPIN  =      1    spin polarized calculation?
   LNONCOLLINEAR =      F non collinear calculations
   LSORBIT =      F    spin-orbit coupling
   INIWAV =      1    electr: 0-lowe 1-rand  2-diag
   LASPH  =      F    aspherical Exc in radial PAW
   METAGGA=      F    non-selfconsistent MetaGGA calc.

 Electronic Relaxation 1
   ENCUT  =  600.0 eV  44.10 Ry    6.64 a.u.   7.68  7.68  7.68*2*pi/ulx,y,z
   ENINI  =  600.0     initial cutoff
   ENAUG  =  605.4 eV  augmentation charge cutoff
   NELM   =     60;   NELMIN=  2; NELMDL=  0     # of ELM steps 
   EDIFF  = 0.1E-03   stopping-criterion for ELM
   LREAL  =      F    real-space projection
   NLSPLINE    = F    spline interpolate recip. space projectors
   LCOMPAT=      F    compatible to vasp.4.4
   GGA_COMPAT  = T    GGA compatible to vasp.4.4-vasp.4.6
   LMAXPAW     = -100 max onsite density
   LMAXMIX     =    4 max onsite mixed and CHGCAR
   VOSKOWN=      0    Vosko Wilk Nusair interpolation
   ROPT   =    0.00000   0.00000   0.00000
 Ionic relaxation
   EDIFFG = 0.1E-02   stopping-criterion for IOM
   NSW    =      0    number of steps for IOM
   NBLOCK =      1;   KBLOCK =      1    inner block; outer block 
   IBRION =     -1    ionic relax: 0-MD 1-quasi-New 2-CG
   NFREE  =      0    steps in history (QN), initial steepest desc. (CG)
   ISIF   =      2    stress and relaxation
   IWAVPR =     10    prediction:  0-non 1-charg 2-wave 3-comb
   ISYM   =      2    0-nonsym 1-usesym 2-fastsym
   LCORR  =      T    Harris-Foulkes like correction to forces

   POTIM  = 0.5000    time-step for ionic-motion
   TEIN   =    0.0    initial temperature
   TEBEG  =    0.0;   TEEND  =   0.0 temperature during run
   SMASS  =  -3.00    Nose mass-parameter (am)
   estimated Nose-frequenzy (Omega)   =  0.10E-29 period in steps =****** mass=  -0.338E-27a.u.
   SCALEE = 1.0000    scale energy and forces
   NPACO  =    256;   APACO  = 16.0  distance and # of slots for P.C.
   PSTRESS=    0.0 pullay stress

  Mass of Ions in am
   POMASS =  87.62 50.94 16.00
  Ionic Valenz
   ZVAL   =  10.00  5.00  6.00
  Atomic Wigner-Seitz radii
   RWIGS  =  -1.00 -1.00 -1.00
  virtual crystal weights 
   VCA    =   1.00  1.00  1.00
   NELECT =      33.0000    total number of electrons
   NUPDOWN=      -1.0000    fix difference up-down

 DOS related values:
   EMIN   =  10.00;   EMAX   =-10.00  energy-range for DOS
   EFERMI =   0.00
   ISMEAR =     0;   SIGMA  =   0.20  broadening in eV -4-tet -1-fermi 0-gaus

 Electronic relaxation 2 (details)
   IALGO  =     48    algorithm
   LDIAG  =      T    sub-space diagonalisation (order eigenvalues)
   LSUBROT=      F    optimize rotation matrix (better conditioning)
   TURBO    =      0    0=normal 1=particle mesh
   IRESTART =      0    0=no restart 2=restart with 2 vectors
   NREBOOT  =      0    no. of reboots
   NMIN     =      0    reboot dimension
   EREF     =   0.00    reference energy to select bands
   IMIX   =      4    mixing-type and parameters
     AMIX     =   0.40;   BMIX     =  1.00
     AMIX_MAG =   1.60;   BMIX_MAG =  1.00
     AMIN     =   0.10
     WC   =   100.;   INIMIX=   1;  MIXPRE=   1;  MAXMIX= -45

 Intra band minimization:
   WEIMIN = 0.0000     energy-eigenvalue tresh-hold
   EBREAK =  0.50E-06  absolut break condition
   DEPER  =   0.30     relativ break condition  

   TIME   =   0.40     timestep for ELM

  volume/ion in A,a.u.               =      11.38        76.81
  Fermi-wavevector in a.u.,A,eV,Ry     =   1.365143  2.579746 25.356027  1.863615
  Thomas-Fermi vector in A             =   2.491397
 
 Write flags
   LWAVE        =      T    write WAVECAR
   LDOWNSAMPLE  =      F    k-point downsampling of WAVECAR
   LCHARG       =      T    write CHGCAR
   LVTOT        =      F    write LOCPOT, total local potential
   LVHAR        =      F    write LOCPOT, Hartree potential only
   LELF         =      F    write electronic localiz. function (ELF)
   LORBIT       =     11    0 simple, 1 ext, 2 COOP (PROOUT), +10 PAW based schemes


 Dipole corrections
   LMONO  =      F    monopole corrections only (constant potential shift)
   LDIPOL =      F    correct potential (dipole corrections)
   IDIPOL =      0    1-x, 2-y, 3-z, 4-all directions 
   EPSILON=  1.0000000 bulk dielectric constant

 Exchange correlation treatment:
   GGA     =    PS    GGA type
   LEXCH   =    14    internal setting for exchange type
   VOSKOWN=      0    Vosko Wilk Nusair interpolation
   LHFCALC =     F    Hartree Fock is set to
   LHFONE  =     F    Hartree Fock one center treatment
   AEXX    =    0.0000 exact exchange contribution

 Linear response parameters
   LEPSILON=     F    determine dielectric tensor
   LRPA    =     F    only Hartree local field effects (RPA)
   LNABLA  =     F    use nabla operator in PAW spheres
   LVEL    =     F    velocity operator in full k-point grid
   LINTERFAST=   F  fast interpolation
   KINTER  =     0    interpolate to denser k-point grid
   CSHIFT  =0.1000    complex shift for real part using Kramers Kronig
   OMEGAMAX=  -1.0    maximum frequency
   DEG_THRESHOLD= 0.2000000E-02 threshold for treating states as degnerate
   RTIME   =   -0.100 relaxation time in fs
  (WPLASMAI=    0.000 imaginary part of plasma frequency in eV, 0.658/RTIME)
   DFIELD  = 0.0000000 0.0000000 0.0000000 field for delta impulse in time
 
 Orbital magnetization related:
   ORBITALMAG=     F  switch on orbital magnetization
   LCHIMAG   =     F  perturbation theory with respect to B field
   DQ        =  0.001000  dq finite difference perturbation B field
   LLRAUG    =     F  two centre corrections for induced B field



--------------------------------------------------------------------------------------------------------


 Static calculation
 charge density and potential remain constant during run
 non-spin polarized calculation
 RMM-DIIS sequential band-by-band
 perform sub-space diagonalisation
    before iterative eigenvector-optimisation
 no mixing
 using additional bands           33
 reciprocal scheme for non local part
 use partial core corrections
 calculate Harris-corrections to forces 
   (improved forces if not selfconsistent)
 use gradient corrections 
 WARNING: stress and forces are not correct
  (second derivative of E(xc) not defined)
 use of overlap-Matrix (Vanderbilt PP)
 Gauss-broadening in eV      SIGMA  =   0.20


--------------------------------------------------------------------------------------------------------


  energy-cutoff  :      600.00
  volume of cell :       56.91
      direct lattice vectors                 reciprocal lattice vectors
     3.846520000  0.000000000  0.000000000     0.259975250  0.000000000  0.000000000
     0.000000000  3.846520000  0.000000000     0.000000000  0.259975250  0.000000000
     0.000000000  0.000000000  3.846520000     0.000000000  0.000000000  0.259975250

  length of vectors
     3.846520000  3.846520000  3.846520000     0.259975250  0.259975250  0.259975250


 
 old parameters found on file WAVECAR:
  energy-cutoff  :      600.00
  volume of cell :       56.91
      direct lattice vectors                 reciprocal lattice vectors
     3.846520000  0.000000000  0.000000000     0.259975250  0.000000000  0.000000000
     0.000000000  3.846520000  0.000000000     0.000000000  0.259975250  0.000000000
     0.000000000  0.000000000  3.846520000     0.000000000  0.000000000  0.259975250

  length of vectors

 
 k-points in units of 2pi/SCALE and weight: KPOINTS generated by PyProcar           
   0.00000000  0.00000000  0.00000000       0.006
   0.01282051  0.00000000  0.00000000       0.006
   0.02564103  0.00000000  0.00000000       0.006
   0.03846154  0.00000000  0.00000000       0.006
   0.05128205  0.00000000  0.00000000       0.006
   0.06410256  0.00000000  0.00000000       0.006
   0.07692308  0.00000000  0.00000000       0.006
   0.08974359  0.00000000  0.00000000       0.006
   0.10256410  0.00000000  0.00000000       0.006
   0.11538462  0.00000000  0.00000000       0.006
   0.12820513  0.00000000  0.00000000       0.006
   0.14102564  0.00000000  0.00000000       0.006
   0.15384615  0.00000000  0.00000000       0.006
   0.16666667  0.00000000  0.00000000       0.006
   0.17948718  0.00000000  0.00000000       0.006
   0.19230769  0.00000000  0.00000000       0.006
   0.20512821  0.00000000  0.00000000       0.006
   0.21794872  0.00000000  0.00000000       0.006
   0.23076923  0.00000000  0.00000000       0.006
   0.24358974  0.00000000  0.00000000       0.006
   0.25641026  0.00000000  0.00000000       0.006
   0.26923077  0.00000000  0.00000000       0.006
   0.28205128  0.00000000  0.00000000       0.006
   0.29487179  0.00000000  0.00000000       0.006
   0.30769231  0.00000000  0.00000000       0.006
   0.32051282  0.00000000  0.00000000       0.006
   0.33333333  0.00000000  0.00000000       0.006
   0.34615385  0.00000000  0.00000000       0.006
   0.35897436  0.00000000  0.00000000       0.006
   0.37179487  0.00000000  0.00000000       0.006
   0.38461538  0.00000000  0.00000000       0.006
   0.39743590  0.00000000  0.00000000       0.006
   0.41025641  0.00000000  0.00000000       0.006
   0.42307692  0.00000000  0.00000000       0.006
   0.43589744  0.00000000  0.00000000       0.006
   0.44871795  0.00000000  0.00000000       0.006
   0.46153846  0.00000000  0.00000000       0.006
   0.47435897  0.00000000  0.00000000       0.006
   0.48717949  0.00000000  0.00000000       0.006
   0.50000000  0.00000000  0.00000000       0.006
   0.50000000  0.00000000  0.00000000       0.006
   0.50000000  0.01282051  0.00000000       0.006
   0.50000000  0.02564103  0.00000000       0.006
   0.50000000  0.03846154  0.00000000       0.006
   0.50000000  0.05128205  0.00000000       0.006
   0.50000000  0.06410256  0.00000000       0.006
   0.50000000  0.07692308  0.00000000       0.006
   0.50000000  0.08974359  0.00000000       0.006
   0.50000000  0.10256410  0.00000000       0.006
   0.50000000  0.11538462  0.00000000       0.006
   0.50000000  0.12820513  0.00000000       0.006
   0.50000000  0.14102564  0.00000000       0.006
   0.50000000  0.15384615  0.00000000       0.006
   0.50000000  0.16666667  0.00000000       0.006
   0.50000000  0.17948718  0.00000000       0.006
   0.50000000  0.19230769  0.00000000       0.006
   0.50000000  0.20512821  0.00000000       0.006
   0.50000000  0.21794872  0.00000000       0.006
   0.50000000  0.23076923  0.00000000       0.006
   0.50000000  0.24358974  0.00000000       0.006
   0.50000000  0.25641026  0.00000000       0.006
   0.50000000  0.26923077  0.00000000       0.006
   0.50000000  0.28205128  0.00000000       0.006
   0.50000000  0.29487179  0.00000000       0.006
   0.50000000  0.30769231  0.00000000       0.006
   0.50000000  0.32051282  0.00000000       0.006
   0.50000000  0.33333333  0.00000000       0.006
   0.50000000  0.34615385  0.00000000       0.006
   0.50000000  0.35897436  0.00000000       0.006
   0.50000000  0.37179487  0.00000000       0.006
   0.50000000  0.38461538  0.00000000       0.006
   0.50000000  0.39743590  0.00000000       0.006
   0.50000000  0.41025641  0.00000000       0.006
   0.50000000  0.42307692  0.00000000       0.006
   0.50000000  0.43589744  0.00000000       0.006
   0.50000000  0.44871795  0.00000000       0.006
   0.50000000  0.46153846  0.00000000       0.006
   0.50000000  0.47435897  0.00000000       0.006
   0.50000000  0.48717949  0.00000000       0.006
   0.50000000  0.50000000  0.00000000       0.006
   0.50000000  0.50000000  0.00000000       0.006
   0.48717949  0.48717949  0.00000000       0.006
   0.47435897  0.47435897  0.00000000       0.006
   0.46153846  0.46153846  0.00000000       0.006
   0.44871795  0.44871795  0.00000000       0.006
   0.43589744  0.43589744  0.00000000       0.006
   0.42307692  0.42307692  0.00000000       0.006
   0.41025641  0.41025641  0.00000000       0.006
   0.39743590  0.39743590  0.00000000       0.006
   0.38461538  0.38461538  0.00000000       0.006
   0.37179487  0.37179487  0.00000000       0.006
   0.35897436  0.35897436  0.00000000       0.006
   0.34615385  0.34615385  0.00000000       0.006
   0.33333333  0.33333333  0.00000000       0.006
   0.32051282  0.32051282  0.00000000       0.006
   0.30769231  0.30769231  0.00000000       0.006
   0.29487179  0.29487179  0.00000000       0.006
   0.28205128  0.28205128  0.00000000       0.006
   0.26923077  0.26923077  0.00000000       0.006
   0.25641026  0.25641026  0.00000000       0.006
   0.24358974  0.24358974  0.00000000       0.006
   0.23076923  0.23076923  0.00000000       0.006
   0.21794872  0.21794872  0.00000000       0.006
   0.20512821  0.20512821  0.00000000       0.006
   0.19230769  0.19230769  0.00000000       0.006
   0.17948718  0.17948718  0.00000000       0.006
   0.16666667  0.16666667  0.00000000       0.006
   0.15384615  0.15384615  0.00000000       0.006
   0.14102564  0.14102564  0.00000000       0.006
   0.12820513  0.12820513  0.00000000       0.006
   0.11538462  0.11538462  0.00000000       0.006
   0.10256410  0.10256410  0.00000000       0.006
   0.08974359  0.08974359  0.00000000       0.006
   0.07692308  0.07692308  0.00000000       0.006
   0.06410256  0.06410256  0.00000000       0.006
   0.05128205  0.05128205  0.00000000       0.006
   0.03846154  0.03846154  0.00000000       0.006
   0.02564103  0.02564103  0.00000000       0.006
   0.01282051  0.01282051  0.00000000       0.006
   0.00000000  0.00000000  0.00000000       0.006
   0.00000000  0.00000000  0.00000000       0.006
   0.01282051  0.01282051  0.01282051       0.006
   0.02564103  0.02564103  0.02564103       0.006
   0.03846154  0.03846154  0.03846154       0.006
   0.05128205  0.05128205  0.05128205       0.006
   0.06410256  0.06410256  0.06410256       0.006
   0.07692308  0.07692308  0.07692308       0.006
   0.08974359  0.08974359  0.08974359       0.006
   0.10256410  0.10256410  0.10256410       0.006
   0.11538462  0.11538462  0.11538462       0.006
   0.12820513  0.12820513  0.12820513       0.006
   0.14102564  0.14102564  0.14102564       0.006
   0.15384615  0.15384615  0.15384615       0.006
   0.16666667  0.16666667  0.16666667       0.006
   0.17948718  0.17948718  0.17948718       0.006
   0.19230769  0.19230769  0.19230769       0.006
   0.20512821  0.20512821  0.20512821       0.006
   0.21794872  0.21794872  0.21794872       0.006
   0.23076923  0.23076923  0.23076923       0.006
   0.24358974  0.24358974  0.24358974       0.006
   0.25641026  0.25641026  0.25641026       0.006
   0.26923077  0.26923077  0.26923077       0.006
   0.28205128  0.28205128  0.28205128       0.006
   0.29487179  0.29487179  0.29487179       0.006
   0.30769231  0.30769231  0.30769231       0.006
   0.32051282  0.32051282  0.32051282       0.006
   0.33333333  0.33333333  0.33333333       0.006
   0.34615385  0.34615385  0.34615385       0.006
   0.35897436  0.35897436  0.35897436       0.006
   0.37179487  0.37179487  0.37179487       0.006
   0.38461538  0.38461538  0.38461538       0.006
   0.39743590  0.39743590  0.39743590       0.006
   0.41025641  0.41025641  0.41025641       0.006
   0.42307692  0.42307692  0.42307692       0.006
   0.43589744  0.43589744  0.43589744       0.006
   0.44871795  0.44871795  0.44871795       0.006
   0.46153846  0.46153846  0.46153846       0.006
   0.47435897  0.47435897  0.47435897       0.006
   0.48717949  0.48717949  0.48717949       0.006
   0.50000000  0.50000000  0.50000000       0.006
 
 k-points in reciprocal lattice and weights: KPOINTS generated by PyProcar           
   0.00000000  0.00000000  0.00000000       0.006
   0.01282051  0.00000000  0.00000000       0.006
   0.02564103  0.00000000  0.00000000       0.006
   0.03846154  0.00000000  0.00000000       0.006
   0.05128205  0.00000000  0.00000000       0.006
   0.06410256  0.00000000  0.00000000       0.006
   0.07692308  0.00000000  0.00000000       0.006
   0.08974359  0.00000000  0.00000000       0.006
   0.10256410  0.00000000  0.00000000       0.006
   0.11538462  0.00000000  0.00000000       0.006
   0.12820513  0.00000000  0.00000000       0.006
   0.14102564  0.00000000  0.00000000       0.006
   0.15384615  0.00000000  0.00000000       0.006
   0.16666667  0.00000000  0.00000000       0.006
   0.17948718  0.00000000  0.00000000       0.006
   0.19230769  0.00000000  0.00000000       0.006
   0.20512821  0.00000000  0.00000000       0.006
   0.21794872  0.00000000  0.00000000       0.006
   0.23076923  0.00000000  0.00000000       0.006
   0.24358974  0.00000000  0.00000000       0.006
   0.25641026  0.00000000  0.00000000       0.006
   0.26923077  0.00000000  0.00000000       0.006
   0.28205128  0.00000000  0.00000000       0.006
   0.29487179  0.00000000  0.00000000       0.006
   0.30769231  0.00000000  0.00000000       0.006
   0.32051282  0.00000000  0.00000000       0.006
   0.33333333  0.00000000  0.00000000       0.006
   0.34615385  0.00000000  0.00000000       0.006
   0.35897436  0.00000000  0.00000000       0.006
   0.37179487  0.00000000  0.00000000       0.006
   0.38461538  0.00000000  0.00000000       0.006
   0.39743590  0.00000000  0.00000000       0.006
   0.41025641  0.00000000  0.00000000       0.006
   0.42307692  0.00000000  0.00000000       0.006
   0.43589744  0.00000000  0.00000000       0.006
   0.44871795  0.00000000  0.00000000       0.006
   0.46153846  0.00000000  0.00000000       0.006
   0.47435897  0.00000000  0.00000000       0.006
   0.48717949  0.00000000  0.00000000       0.006
   0.50000000  0.00000000  0.00000000       0.006
   0.50000000  0.00000000  0.00000000       0.006
   0.50000000  0.01282051  0.00000000       0.006
   0.50000000  0.02564103  0.00000000       0.006
   0.50000000  0.03846154  0.00000000       0.006
   0.50000000  0.05128205  0.00000000       0.006
   0.50000000  0.06410256  0.00000000       0.006
   0.50000000  0.07692308  0.00000000       0.006
   0.50000000  0.08974359  0.00000000       0.006
   0.50000000  0.10256410  0.00000000       0.006
   0.50000000  0.11538462  0.00000000       0.006
   0.50000000  0.12820513  0.00000000       0.006
   0.50000000  0.14102564  0.00000000       0.006
   0.50000000  0.15384615  0.00000000       0.006
   0.50000000  0.16666667  0.00000000       0.006
   0.50000000  0.17948718  0.00000000       0.006
   0.50000000  0.19230769  0.00000000       0.006
   0.50000000  0.20512821  0.00000000       0.006
   0.50000000  0.21794872  0.00000000       0.006
   0.50000000  0.23076923  0.00000000       0.006
   0.50000000  0.24358974  0.00000000       0.006
   0.50000000  0.25641026  0.00000000       0.006
   0.50000000  0.26923077  0.00000000       0.006
   0.50000000  0.28205128  0.00000000       0.006
   0.50000000  0.29487179  0.00000000       0.006
   0.50000000  0.30769231  0.00000000       0.006
   0.50000000  0.32051282  0.00000000       0.006
   0.50000000  0.33333333  0.00000000       0.006
   0.50000000  0.34615385  0.00000000       0.006
   0.50000000  0.35897436  0.00000000       0.006
   0.50000000  0.37179487  0.00000000       0.006
   0.50000000  0.38461538  0.00000000       0.006
   0.50000000  0.39743590  0.00000000       0.006
   0.50000000  0.41025641  0.00000000       0.006
   0.50000000  0.42307692  0.00000000       0.006
   0.50000000  0.43589744  0.00000000       0.006
   0.50000000  0.44871795  0.00000000       0.006
   0.50000000  0.46153846  0.00000000       0.006
   0.50000000  0.47435897  0.00000000       0.006
   0.50000000  0.48717949  0.00000000       0.006
   0.50000000  0.50000000  0.00000000       0.006
   0.50000000  0.50000000  0.00000000       0.006
   0.48717949  0.48717949  0.00000000       0.006
   0.47435897  0.47435897  0.00000000       0.006
   0.46153846  0.46153846  0.00000000       0.006
   0.44871795  0.44871795  0.00000000       0.006
   0.43589744  0.43589744  0.00000000       0.006
   0.42307692  0.42307692  0.00000000       0.006
   0.41025641  0.41025641  0.00000000       0.006
   0.39743590  0.39743590  0.00000000       0.006
   0.38461538  0.38461538  0.00000000       0.006
   0.37179487  0.37179487  0.00000000       0.006
   0.35897436  0.35897436  0.00000000       0.006
   0.34615385  0.34615385  0.00000000       0.006
   0.33333333  0.33333333  0.00000000       0.006
   0.32051282  0.32051282  0.00000000       0.006
   0.30769231  0.30769231  0.00000000       0.006
   0.29487179  0.29487179  0.00000000       0.006
   0.28205128  0.28205128  0.00000000       0.006
   0.26923077  0.26923077  0.00000000       0.006
   0.25641026  0.25641026  0.00000000       0.006
   0.24358974  0.24358974  0.00000000       0.006
   0.23076923  0.23076923  0.00000000       0.006
   0.21794872  0.21794872  0.00000000       0.006
   0.20512821  0.20512821  0.00000000       0.006
   0.19230769  0.19230769  0.00000000       0.006
   0.17948718  0.17948718  0.00000000       0.006
   0.16666667  0.16666667  0.00000000       0.006
   0.15384615  0.15384615  0.00000000       0.006
   0.14102564  0.14102564  0.00000000       0.006
   0.12820513  0.12820513  0.00000000       0.006
   0.11538462  0.11538462  0.00000000       0.006
   0.10256410  0.10256410  0.00000000       0.006
   0.08974359  0.08974359  0.00000000       0.006
   0.07692308  0.07692308  0.00000000       0.006
   0.06410256  0.06410256  0.00000000       0.006
   0.05128205  0.05128205  0.00000000       0.006
   0.03846154  0.03846154  0.00000000       0.006
   0.02564103  0.02564103  0.00000000       0.006
   0.01282051  0.01282051  0.00000000       0.006
   0.00000000  0.00000000  0.00000000       0.006
   0.00000000  0.00000000  0.00000000       0.006
   0.01282051  0.01282051  0.01282051       0.006
   0.02564103  0.02564103  0.02564103       0.006
   0.03846154  0.03846154  0.03846154       0.006
   0.05128205  0.05128205  0.05128205       0.006
   0.06410256  0.06410256  0.06410256       0.006
   0.07692308  0.07692308  0.07692308       0.006
   0.08974359  0.08974359  0.08974359       0.006
   0.10256410  0.10256410  0.10256410       0.006
   0.11538462  0.11538462  0.11538462       0.006
   0.12820513  0.12820513  0.12820513       0.006
   0.14102564  0.14102564  0.14102564       0.006
   0.15384615  0.15384615  0.15384615       0.006
   0.16666667  0.16666667  0.16666667       0.006
   0.17948718  0.17948718  0.17948718       0.006
   0.19230769  0.19230769  0.19230769       0.006
   0.20512821  0.20512821  0.20512821       0.006
   0.21794872  0.21794872  0.21794872       0.006
   0.23076923  0.23076923  0.23076923       0.006
   0.24358974  0.24358974  0.24358974       0.006
   0.25641026  0.25641026  0.25641026       0.006
   0.26923077  0.26923077  0.26923077       0.006
   0.28205128  0.28205128  0.28205128       0.006
   0.29487179  0.29487179  0.29487179       0.006
   0.30769231  0.30769231  0.30769231       0.006
   0.32051282  0.32051282  0.32051282       0.006
   0.33333333  0.33333333  0.33333333       0.006
   0.34615385  0.34615385  0.34615385       0.006
   0.35897436  0.35897436  0.35897436       0.006
   0.37179487  0.37179487  0.37179487       0.006
   0.38461538  0.38461538  0.38461538       0.006
   0.39743590  0.39743590  0.39743590       0.006
   0.41025641  0.41025641  0.41025641       0.006
   0.42307692  0.42307692  0.42307692       0.006
   0.43589744  0.43589744  0.43589744       0.006
   0.44871795  0.44871795  0.44871795       0.006
   0.46153846  0.46153846  0.46153846       0.006
   0.47435897  0.47435897  0.47435897       0.006
   0.48717949  0.48717949  0.48717949       0.006
   0.50000000  0.50000000  0.50000000       0.006
 
 position of ions in fractional coordinates (direct lattice) 
   0.00000000  0.00000000  0.00000000
   0.50000000  0.50000000  0.50000000
   0.50000000  0.50000000  0.00000000
   0.50000000  0.00000000  0.50000000
   0.00000000  0.50000000  0.50000000
 
 position of ions in cartesian coordinates  (Angst):
   0.00000000  0.00000000  0.00000000
   1.92326000  1.92326000  1.92326000
   1.92326000  1.92326000  0.00000000
   1.92326000  0.00000000  1.92326000
   0.00000000  1.92326000  1.92326000
 


--------------------------------------------------------------------------------------------------------


 k-point  1 :   0.0000 0.0000 0.0000  plane waves:    1935
 k-point  2 :   0.0128 0.0000 0.0000  plane waves:    1899
 k-point  3 :   0.0256 0.0000 0.0000  plane waves:    1899
 k-point  4 :   0.0385 0.0000 0.0000  plane waves:    1899
 k-point  5 :   0.0513 0.0000 0.0000  plane waves:    1899
 k-point  6 :   0.0641 0.0000 0.0000  plane waves:    1899
 k-point  7 :   0.0769 0.0000 0.0000  plane waves:    1895
 k-point  8 :   0.0897 0.0000 0.0000  plane waves:    1895
 k-point  9 :   0.1026 0.0000 0.0000  plane waves:    1895
 k-point 10 :   0.1154 0.0000 0.0000  plane waves:    1895
 k-point 11 :   0.1282 0.0000 0.0000  plane waves:    1895
 k-point 12 :   0.1410 0.0000 0.0000  plane waves:    1895
 k-point 13 :   0.1538 0.0000 0.0000  plane waves:    1891
 k-point 14 :   0.1667 0.0000 0.0000  plane waves:    1887
 k-point 15 :   0.1795 0.0000 0.0000  plane waves:    1899
 k-point 16 :   0.1923 0.0000 0.0000  plane waves:    1899
 k-point 17 :   0.2051 0.0000 0.0000  plane waves:    1899
 k-point 18 :   0.2179 0.0000 0.0000  plane waves:    1907
 k-point 19 :   0.2308 0.0000 0.0000  plane waves:    1907
 k-point 20 :   0.2436 0.0000 0.0000  plane waves:    1907
 k-point 21 :   0.2564 0.0000 0.0000  plane waves:    1907
 k-point 22 :   0.2692 0.0000 0.0000  plane waves:    1907
 k-point 23 :   0.2821 0.0000 0.0000  plane waves:    1907
 k-point 24 :   0.2949 0.0000 0.0000  plane waves:    1907
 k-point 25 :   0.3077 0.0000 0.0000  plane waves:    1915
 k-point 26 :   0.3205 0.0000 0.0000  plane waves:    1916
 k-point 27 :   0.3333 0.0000 0.0000  plane waves:    1916
 k-point 28 :   0.3462 0.0000 0.0000  plane waves:    1916
 k-point 29 :   0.3590 0.0000 0.0000  plane waves:    1916
 k-point 30 :   0.3718 0.0000 0.0000  plane waves:    1908
 k-point 31 :   0.3846 0.0000 0.0000  plane waves:    1912
 k-point 32 :   0.3974 0.0000 0.0000  plane waves:    1912
 k-point 33 :   0.4103 0.0000 0.0000  plane waves:    1908
 k-point 34 :   0.4231 0.0000 0.0000  plane waves:    1904
 k-point 35 :   0.4359 0.0000 0.0000  plane waves:    1904
 k-point 36 :   0.4487 0.0000 0.0000  plane waves:    1908
 k-point 37 :   0.4615 0.0000 0.0000  plane waves:    1904
 k-point 38 :   0.4744 0.0000 0.0000  plane waves:    1904
 k-point 39 :   0.4872 0.0000 0.0000  plane waves:    1888
 k-point 40 :   0.5000 0.0000 0.0000  plane waves:    1888
 k-point 41 :   0.5000 0.0000 0.0000  plane waves:    1888
 k-point 42 :   0.5000 0.0128 0.0000  plane waves:    1888
 k-point 43 :   0.5000 0.0256 0.0000  plane waves:    1896
 k-point 44 :   0.5000 0.0385 0.0000  plane waves:    1900
 k-point 45 :   0.5000 0.0513 0.0000  plane waves:    1900
 k-point 46 :   0.5000 0.0641 0.0000  plane waves:    1900
 k-point 47 :   0.5000 0.0769 0.0000  plane waves:    1900
 k-point 48 :   0.5000 0.0897 0.0000  plane waves:    1904
 k-point 49 :   0.5000 0.1026 0.0000  plane waves:    1898
 k-point 50 :   0.5000 0.1154 0.0000  plane waves:    1902
 k-point 51 :   0.5000 0.1282 0.0000  plane waves:    1902
 k-point 52 :   0.5000 0.1410 0.0000  plane waves:    1902
 k-point 53 :   0.5000 0.1538 0.0000  plane waves:    1894
 k-point 54 :   0.5000 0.1667 0.0000  plane waves:    1896
 k-point 55 :   0.5000 0.1795 0.0000  plane waves:    1896
 k-point 56 :   0.5000 0.1923 0.0000  plane waves:    1900
 k-point 57 :   0.5000 0.2051 0.0000  plane waves:    1896
 k-point 58 :   0.5000 0.2179 0.0000  plane waves:    1904
 k-point 59 :   0.5000 0.2308 0.0000  plane waves:    1910
 k-point 60 :   0.5000 0.2436 0.0000  plane waves:    1914
 k-point 61 :   0.5000 0.2564 0.0000  plane waves:    1914
 k-point 62 :   0.5000 0.2692 0.0000  plane waves:    1908
 k-point 63 :   0.5000 0.2821 0.0000  plane waves:    1896
 k-point 64 :   0.5000 0.2949 0.0000  plane waves:    1900
 k-point 65 :   0.5000 0.3077 0.0000  plane waves:    1900
 k-point 66 :   0.5000 0.3205 0.0000  plane waves:    1900
 k-point 67 :   0.5000 0.3333 0.0000  plane waves:    1896
 k-point 68 :   0.5000 0.3462 0.0000  plane waves:    1908
 k-point 69 :   0.5000 0.3590 0.0000  plane waves:    1908
 k-point 70 :   0.5000 0.3718 0.0000  plane waves:    1910
 k-point 71 :   0.5000 0.3846 0.0000  plane waves:    1914
 k-point 72 :   0.5000 0.3974 0.0000  plane waves:    1910
 k-point 73 :   0.5000 0.4103 0.0000  plane waves:    1910
 k-point 74 :   0.5000 0.4231 0.0000  plane waves:    1910
 k-point 75 :   0.5000 0.4359 0.0000  plane waves:    1918
 k-point 76 :   0.5000 0.4487 0.0000  plane waves:    1918
 k-point 77 :   0.5000 0.4615 0.0000  plane waves:    1926
 k-point 78 :   0.5000 0.4744 0.0000  plane waves:    1924
 k-point 79 :   0.5000 0.4872 0.0000  plane waves:    1924
 k-point 80 :   0.5000 0.5000 0.0000  plane waves:    1924
 k-point 81 :   0.5000 0.5000 0.0000  plane waves:    1924
 k-point 82 :   0.4872 0.4872 0.0000  plane waves:    1924
 k-point 83 :   0.4744 0.4744 0.0000  plane waves:    1928
 k-point 84 :   0.4615 0.4615 0.0000  plane waves:    1918
 k-point 85 :   0.4487 0.4487 0.0000  plane waves:    1912
 k-point 86 :   0.4359 0.4359 0.0000  plane waves:    1912
 k-point 87 :   0.4231 0.4231 0.0000  plane waves:    1913
 k-point 88 :   0.4103 0.4103 0.0000  plane waves:    1901
 k-point 89 :   0.3974 0.3974 0.0000  plane waves:    1901
 k-point 90 :   0.3846 0.3846 0.0000  plane waves:    1901
 k-point 91 :   0.3718 0.3718 0.0000  plane waves:    1897
 k-point 92 :   0.3590 0.3590 0.0000  plane waves:    1895
 k-point 93 :   0.3462 0.3462 0.0000  plane waves:    1899
 k-point 94 :   0.3333 0.3333 0.0000  plane waves:    1903
 k-point 95 :   0.3205 0.3205 0.0000  plane waves:    1899
 k-point 96 :   0.3077 0.3077 0.0000  plane waves:    1887
 k-point 97 :   0.2949 0.2949 0.0000  plane waves:    1891
 k-point 98 :   0.2821 0.2821 0.0000  plane waves:    1895
 k-point 99 :   0.2692 0.2692 0.0000  plane waves:    1897
 k-point ** :   0.2564 0.2564 0.0000  plane waves:    1893
 k-point ** :   0.2436 0.2436 0.0000  plane waves:    1895
 k-point ** :   0.2308 0.2308 0.0000  plane waves:    1901
 k-point ** :   0.2179 0.2179 0.0000  plane waves:    1897
 k-point ** :   0.2051 0.2051 0.0000  plane waves:    1893
 k-point ** :   0.1923 0.1923 0.0000  plane waves:    1897
 k-point ** :   0.1795 0.1795 0.0000  plane waves:    1901
 k-point ** :   0.1667 0.1667 0.0000  plane waves:    1893
 k-point ** :   0.1538 0.1538 0.0000  plane waves:    1897
 k-point ** :   0.1410 0.1410 0.0000  plane waves:    1893
 k-point ** :   0.1282 0.1282 0.0000  plane waves:    1889
 k-point ** :   0.1154 0.1154 0.0000  plane waves:    1893
 k-point ** :   0.1026 0.1026 0.0000  plane waves:    1897
 k-point ** :   0.0897 0.0897 0.0000  plane waves:    1895
 k-point ** :   0.0769 0.0769 0.0000  plane waves:    1895
 k-point ** :   0.0641 0.0641 0.0000  plane waves:    1899
 k-point ** :   0.0513 0.0513 0.0000  plane waves:    1899
 k-point ** :   0.0385 0.0385 0.0000  plane waves:    1901
 k-point ** :   0.0256 0.0256 0.0000  plane waves:    1901
 k-point ** :   0.0128 0.0128 0.0000  plane waves:    1901
 k-point ** :   0.0000 0.0000 0.0000  plane waves:    1935
 k-point ** :   0.0000 0.0000 0.0000  plane waves:    1935
 k-point ** :   0.0128 0.0128 0.0128  plane waves:    1899
 k-point ** :   0.0256 0.0256 0.0256  plane waves:    1899
 k-point ** :   0.0385 0.0385 0.0385  plane waves:    1899
 k-point ** :   0.0513 0.0513 0.0513  plane waves:    1893
 k-point ** :   0.0641 0.0641 0.0641  plane waves:    1893
 k-point ** :   0.0769 0.0769 0.0769  plane waves:    1899
 k-point ** :   0.0897 0.0897 0.0897  plane waves:    1896
 k-point ** :   0.1026 0.1026 0.1026  plane waves:    1899
 k-point ** :   0.1154 0.1154 0.1154  plane waves:    1899
 k-point ** :   0.1282 0.1282 0.1282  plane waves:    1899
 k-point ** :   0.1410 0.1410 0.1410  plane waves:    1893
 k-point ** :   0.1538 0.1538 0.1538  plane waves:    1905
 k-point ** :   0.1667 0.1667 0.1667  plane waves:    1905
 k-point ** :   0.1795 0.1795 0.1795  plane waves:    1905
 k-point ** :   0.1923 0.1923 0.1923  plane waves:    1893
 k-point ** :   0.2051 0.2051 0.2051  plane waves:    1893
 k-point ** :   0.2179 0.2179 0.2179  plane waves:    1899
 k-point ** :   0.2308 0.2308 0.2308  plane waves:    1899
 k-point ** :   0.2436 0.2436 0.2436  plane waves:    1899
 k-point ** :   0.2564 0.2564 0.2564  plane waves:    1902
 k-point ** :   0.2692 0.2692 0.2692  plane waves:    1902
 k-point ** :   0.2821 0.2821 0.2821  plane waves:    1902
 k-point ** :   0.2949 0.2949 0.2949  plane waves:    1902
 k-point ** :   0.3077 0.3077 0.3077  plane waves:    1899
 k-point ** :   0.3205 0.3205 0.3205  plane waves:    1890
 k-point ** :   0.3333 0.3333 0.3333  plane waves:    1896
 k-point ** :   0.3462 0.3462 0.3462  plane waves:    1884
 k-point ** :   0.3590 0.3590 0.3590  plane waves:    1893
 k-point ** :   0.3718 0.3718 0.3718  plane waves:    1896
 k-point ** :   0.3846 0.3846 0.3846  plane waves:    1884
 k-point ** :   0.3974 0.3974 0.3974  plane waves:    1884
 k-point ** :   0.4103 0.4103 0.4103  plane waves:    1896
 k-point ** :   0.4231 0.4231 0.4231  plane waves:    1890
 k-point ** :   0.4359 0.4359 0.4359  plane waves:    1880
 k-point ** :   0.4487 0.4487 0.4487  plane waves:    1880
 k-point ** :   0.4615 0.4615 0.4615  plane waves:    1880
 k-point ** :   0.4744 0.4744 0.4744  plane waves:    1880
 k-point ** :   0.4872 0.4872 0.4872  plane waves:    1904
 k-point ** :   0.5000 0.5000 0.5000  plane waves:    1904

 maximum and minimum number of plane-waves per node :      1935     1880

 maximum number of plane-waves:      1935
 maximum index in each direction: 
   IXMAX=    7   IYMAX=    7   IZMAX=    7
   IXMIN=   -8   IYMIN=   -8   IZMIN=   -8


 serial   3D FFT for wavefunctions
 parallel 3D FFT for charge:
    minimum data exchange during FFTs selected (reduces bandwidth)


 total amount of memory used by VASP MPI-rank0   220587. kBytes
=======================================================================

   base      :      30000. kBytes
   nonl-proj :     133902. kBytes
   fftplans  :       3454. kBytes
   grid      :       2082. kBytes
   one-center:         77. kBytes
   wavefun   :      51072. kBytes
 
     INWAV:  cpu time    0.6626: real time    0.6626
 initial charge density was supplied:
 number of electron      33.0000001 magnetization 
 keeping initial charge density in first step


--------------------------------------------------------------------------------------------------------


 Maximum index for augmentation-charges        24360 (set IRDMAX)


--------------------------------------------------------------------------------------------------------


 First call to EWALD:  gamma=   0.461
 Maximum number of real-space cells 3x 3x 3
 Maximum number of reciprocal cells 3x 3x 3

    FEWALD:  cpu time    0.0018: real time    0.0018


--------------------------------------- Iteration      1(   1)  ---------------------------------------


    POTLOK:  cpu time    0.0170: real time    0.0172
    SETDIJ:  cpu time    0.0199: real time    0.0199
    EDDIAG:  cpu time    1.2199: real time    1.2202
  RMM-DIIS:  cpu time    5.4345: real time    5.4352
    ORTHCH:  cpu time    0.2227: real time    0.2228
       DOS:  cpu time    0.0055: real time    0.0055
    --------------------------------------------
      LOOP:  cpu time    6.9195: real time    6.9208

 eigenvalue-minimisations  : 25022
 total energy-change (2. order) :-0.3279499E+02  (-0.2426428E+02)
 number of electron      33.0000001 magnetization 
 augmentation part       33.0000001 magnetization 

 Free energy of the ion-electron system (eV)
  ---------------------------------------------------
  alpha Z        PSCENC =       180.95685896
  Ewald energy   TEWEN  =     -2047.90029510
  -Hartree energ DENC   =      -423.93898848
  -exchange      EXHF   =         0.00000000
  -V(xc)+E(xc)   XCENC  =        77.81439192
  PAW double counting   =      3878.89058543    -3827.64777564
  entropy T*S    EENTRO =        -0.05456847
  eigenvalues    EBANDS =      -177.56786922
  atomic energy  EATOM  =      2306.65267270
  Solvation  Ediel_sol  =         0.00000000
  ---------------------------------------------------
  free energy    TOTEN  =       -32.79498790 eV

  energy without entropy =      -32.74041944  energy(sigma->0) =      -32.76770367


--------------------------------------------------------------------------------------------------------




--------------------------------------- Iteration      1(   2)  ---------------------------------------


    EDDIAG:  cpu time    1.2075: real time    1.2075
  RMM-DIIS:  cpu time    5.2640: real time    5.2647
    ORTHCH:  cpu time    0.2208: real time    0.2208
       DOS:  cpu time    0.0052: real time    0.0052
    --------------------------------------------
      LOOP:  cpu time    6.6974: real time    6.6981

 eigenvalue-minimisations  : 24300
 total energy-change (2. order) :-0.4668609E+01  (-0.1249349E+01)
 number of electron      33.0000001 magnetization 
 augmentation part       33.0000001 magnetization 

 Free energy of the ion-electron system (eV)
  ---------------------------------------------------
  alpha Z        PSCENC =       180.95685896
  Ewald energy   TEWEN  =     -2047.90029510
  -Hartree energ DENC   =      -423.93898848
  -exchange      EXHF   =         0.00000000
  -V(xc)+E(xc)   XCENC  =        77.81439192
  PAW double counting   =      3878.89058543    -3827.64777564
  entropy T*S    EENTRO =        -0.05917662
  eigenvalues    EBANDS =      -182.23187023
  atomic energy  EATOM  =      2306.65267270
  Solvation  Ediel_sol  =         0.00000000
  ---------------------------------------------------
  free energy    TOTEN  =       -37.46359707 eV

  energy without entropy =      -37.40442045  energy(sigma->0) =      -37.43400876


--------------------------------------------------------------------------------------------------------




--------------------------------------- Iteration      1(   3)  ---------------------------------------


    EDDIAG:  cpu time    1.1997: real time    1.1999
  RMM-DIIS:  cpu time    5.6184: real time    5.6191
    ORTHCH:  cpu time    0.2201: real time    0.2201
       DOS:  cpu time    0.0051: real time    0.0051
    --------------------------------------------
      LOOP:  cpu time    7.0432: real time    7.0441

 eigenvalue-minimisations  : 25791
 total energy-change (2. order) :-0.3078965E+00  (-0.1940354E+00)
 number of electron      33.0000001 magnetization 
 augmentation part       33.0000001 magnetization 

 Free energy of the ion-electron system (eV)
  ---------------------------------------------------
  alpha Z        PSCENC =       180.95685896
  Ewald energy   TEWEN  =     -2047.90029510
  -Hartree energ DENC   =      -423.93898848
  -exchange      EXHF   =         0.00000000
  -V(xc)+E(xc)   XCENC  =        77.81439192
  PAW double counting   =      3878.89058543    -3827.64777564
  entropy T*S    EENTRO =        -0.05933065
  eigenvalues    EBANDS =      -182.53961267
  atomic energy  EATOM  =      2306.65267270
  Solvation  Ediel_sol  =         0.00000000
  ---------------------------------------------------
  free energy    TOTEN  =       -37.77149354 eV

  energy without entropy =      -37.71216289  energy(sigma->0) =      -37.74182821


--------------------------------------------------------------------------------------------------------




--------------------------------------- Iteration      1(   4)  ---------------------------------------


    EDDIAG:  cpu time    1.1972: real time    1.1973
  RMM-DIIS:  cpu time    5.8619: real time    5.8626
    ORTHCH:  cpu time    0.2207: real time    0.2207
       DOS:  cpu time    0.0051: real time    0.0051
    --------------------------------------------
      LOOP:  cpu time    7.2849: real time    7.2858

 eigenvalue-minimisations  : 27104
 total energy-change (2. order) :-0.4440011E-01  (-0.4042811E-01)
 number of electron      33.0000001 magnetization 
 augmentation part       33.0000001 magnetization 

 Free energy of the ion-electron system (eV)
  ---------------------------------------------------
  alpha Z        PSCENC =       180.95685896
  Ewald energy   TEWEN  =     -2047.90029510
  -Hartree energ DENC   =      -423.93898848
  -exchange      EXHF   =         0.00000000
  -V(xc)+E(xc)   XCENC  =        77.81439192
  PAW double counting   =      3878.89058543    -3827.64777564
  entropy T*S    EENTRO =        -0.05928817
  eigenvalues    EBANDS =      -182.58405526
  atomic energy  EATOM  =      2306.65267270
  Solvation  Ediel_sol  =         0.00000000
  ---------------------------------------------------
  free energy    TOTEN  =       -37.81589365 eV

  energy without entropy =      -37.75660548  energy(sigma->0) =      -37.78624956


--------------------------------------------------------------------------------------------------------




--------------------------------------- Iteration      1(   5)  ---------------------------------------


    EDDIAG:  cpu time    1.1985: real time    1.1987
  RMM-DIIS:  cpu time    5.6930: real time    5.6937
    ORTHCH:  cpu time    0.2191: real time    0.2191
       DOS:  cpu time    0.0048: real time    0.0048
    --------------------------------------------
      LOOP:  cpu time    7.1154: real time    7.1164

 eigenvalue-minimisations  : 26666
 total energy-change (2. order) :-0.8558574E-02  (-0.6956869E-02)
 number of electron      33.0000001 magnetization 
 augmentation part       33.0000001 magnetization 

 Free energy of the ion-electron system (eV)
  ---------------------------------------------------
  alpha Z        PSCENC =       180.95685896
  Ewald energy   TEWEN  =     -2047.90029510
  -Hartree energ DENC   =      -423.93898848
  -exchange      EXHF   =         0.00000000
  -V(xc)+E(xc)   XCENC  =        77.81439192
  PAW double counting   =      3878.89058543    -3827.64777564
  entropy T*S    EENTRO =        -0.05928698
  eigenvalues    EBANDS =      -182.59261502
  atomic energy  EATOM  =      2306.65267270
  Solvation  Ediel_sol  =         0.00000000
  ---------------------------------------------------
  free energy    TOTEN  =       -37.82445222 eV

  energy without entropy =      -37.76516524  energy(sigma->0) =      -37.79480873


--------------------------------------------------------------------------------------------------------




--------------------------------------- Iteration      1(   6)  ---------------------------------------


    EDDIAG:  cpu time    1.1956: real time    1.1957
  RMM-DIIS:  cpu time    5.3009: real time    5.3016
    ORTHCH:  cpu time    0.2125: real time    0.2125
       DOS:  cpu time    0.0052: real time    0.0052
    --------------------------------------------
      LOOP:  cpu time    6.7142: real time    6.7150

 eigenvalue-minimisations  : 24223
 total energy-change (2. order) :-0.2884000E-02  (-0.2022879E-02)
 number of electron      33.0000001 magnetization 
 augmentation part       33.0000001 magnetization 

 Free energy of the ion-electron system (eV)
  ---------------------------------------------------
  alpha Z        PSCENC =       180.95685896
  Ewald energy   TEWEN  =     -2047.90029510
  -Hartree energ DENC   =      -423.93898848
  -exchange      EXHF   =         0.00000000
  -V(xc)+E(xc)   XCENC  =        77.81439192
  PAW double counting   =      3878.89058543    -3827.64777564
  entropy T*S    EENTRO =        -0.05928446
  eigenvalues    EBANDS =      -182.59550154
  atomic energy  EATOM  =      2306.65267270
  Solvation  Ediel_sol  =         0.00000000
  ---------------------------------------------------
  free energy    TOTEN  =       -37.82733622 eV

  energy without entropy =      -37.76805176  energy(sigma->0) =      -37.79769399


--------------------------------------------------------------------------------------------------------




--------------------------------------- Iteration      1(   7)  ---------------------------------------


    EDDIAG:  cpu time    1.2071: real time    1.2073
  RMM-DIIS:  cpu time    4.9399: real time    4.9405
    ORTHCH:  cpu time    0.2118: real time    0.2118
       DOS:  cpu time    0.0052: real time    0.0052
    --------------------------------------------
      LOOP:  cpu time    6.3640: real time    6.3648

 eigenvalue-minimisations  : 22179
 total energy-change (2. order) :-0.9502742E-03  (-0.6615847E-03)
 number of electron      33.0000001 magnetization 
 augmentation part       33.0000001 magnetization 

 Free energy of the ion-electron system (eV)
  ---------------------------------------------------
  alpha Z        PSCENC =       180.95685896
  Ewald energy   TEWEN  =     -2047.90029510
  -Hartree energ DENC   =      -423.93898848
  -exchange      EXHF   =         0.00000000
  -V(xc)+E(xc)   XCENC  =        77.81439192
  PAW double counting   =      3878.89058543    -3827.64777564
  entropy T*S    EENTRO =        -0.05928383
  eigenvalues    EBANDS =      -182.59645244
  atomic energy  EATOM  =      2306.65267270
  Solvation  Ediel_sol  =         0.00000000
  ---------------------------------------------------
  free energy    TOTEN  =       -37.82828650 eV

  energy without entropy =      -37.76900266  energy(sigma->0) =      -37.79864458


--------------------------------------------------------------------------------------------------------




--------------------------------------- Iteration      1(   8)  ---------------------------------------


    EDDIAG:  cpu time    1.1956: real time    1.1958
  RMM-DIIS:  cpu time    4.8781: real time    4.8787
    ORTHCH:  cpu time    0.2208: real time    0.2209
       DOS:  cpu time    0.0052: real time    0.0052
    --------------------------------------------
      LOOP:  cpu time    6.2996: real time    6.3006

 eigenvalue-minimisations  : 20482
 total energy-change (2. order) :-0.3093928E-03  (-0.2150907E-03)
 number of electron      33.0000001 magnetization 
 augmentation part       33.0000001 magnetization 

 Free energy of the ion-electron system (eV)
  ---------------------------------------------------
  alpha Z        PSCENC =       180.95685896
  Ewald energy   TEWEN  =     -2047.90029510
  -Hartree energ DENC   =      -423.93898848
  -exchange      EXHF   =         0.00000000
  -V(xc)+E(xc)   XCENC  =        77.81439192
  PAW double counting   =      3878.89058543    -3827.64777564
  entropy T*S    EENTRO =        -0.05928365
  eigenvalues    EBANDS =      -182.59676202
  atomic energy  EATOM  =      2306.65267270
  Solvation  Ediel_sol  =         0.00000000
  ---------------------------------------------------
  free energy    TOTEN  =       -37.82859589 eV

  energy without entropy =      -37.76931224  energy(sigma->0) =      -37.79895406


--------------------------------------------------------------------------------------------------------




--------------------------------------- Iteration      1(   9)  ---------------------------------------


    EDDIAG:  cpu time    1.2448: real time    1.2449
  RMM-DIIS:  cpu time    4.5270: real time    4.5275
    ORTHCH:  cpu time    0.2117: real time    0.2119
       DOS:  cpu time    0.0051: real time    0.0051
    --------------------------------------------
      LOOP:  cpu time    5.9886: real time    5.9894

 eigenvalue-minimisations  : 19018
 total energy-change (2. order) :-0.9957859E-04  (-0.6991372E-04)
 number of electron      33.0000001 magnetization 
 augmentation part       33.0000001 magnetization 

 Free energy of the ion-electron system (eV)
  ---------------------------------------------------
  alpha Z        PSCENC =       180.95685896
  Ewald energy   TEWEN  =     -2047.90029510
  -Hartree energ DENC   =      -423.93898848
  -exchange      EXHF   =         0.00000000
  -V(xc)+E(xc)   XCENC  =        77.81439192
  PAW double counting   =      3878.89058543    -3827.64777564
  entropy T*S    EENTRO =        -0.05928359
  eigenvalues    EBANDS =      -182.59686166
  atomic energy  EATOM  =      2306.65267270
  Solvation  Ediel_sol  =         0.00000000
  ---------------------------------------------------
  free energy    TOTEN  =       -37.82869547 eV

  energy without entropy =      -37.76941188  energy(sigma->0) =      -37.79905367


--------------------------------------------------------------------------------------------------------




 average (electrostatic) potential at core
  the test charge radii are     1.1929  1.2064  0.7215
  (the norm of the test charge is              1.0000)
       1 -34.8655       2 -42.8120       3 -71.6581       4 -71.6581       5 -71.6581
 
 
 
 E-fermi :   4.4812     XC(G=0): -11.7181     alpha+bet :-13.3782


 k-point     1 :       0.0000    0.0000    0.0000
  band No.  band energies     occupation 
      1     -29.0561      2.00000
      2     -14.2938      2.00000
      3     -13.0803      2.00000
      4     -13.0803      2.00000
      5     -11.0905      2.00000
      6     -11.0905      2.00000
      7     -11.0905      2.00000
      8       0.1757      2.00000
      9       0.1757      2.00000
     10       0.1757      2.00000
     11       2.1578      2.00000
     12       2.1578      2.00000
     13       2.1578      2.00000
     14       3.0042      2.00000
     15       3.0042      2.00000
     16       3.0042      2.00000
     17       4.2925      1.81784
     18       4.2925      1.81784
     19       4.2925      1.81784
     20       6.4698      0.00000
     21       6.4698      0.00000
     22       8.8314      0.00000
     23       8.8314      0.00000
     24       9.9262      0.00000
     25      11.8629      0.00000
     26      11.8629      0.00000
     27      11.8629      0.00000
     28      18.4638      0.00000
     29      20.8144      0.00000
     30      20.8144      0.00000
     31      20.8144      0.00000
     32      24.5534      0.00000
     33      24.5534      0.00000
     34      24.5534      0.00000
     35      25.0033      0.00000
     36      25.0033      0.00000
     37      25.4298      0.00000
     38      26.7539      0.00000
     39      26.7539      0.00000
     40      26.7539      0.00000
     41      30.4371      0.00000
     42      30.4371      0.00000
     43      30.4371      0.00000
     44      34.2936      0.00000
     45      34.3084      0.00000
     46      34.3868      0.00000
     47      34.4913      0.00000
     48      40.8755      0.00000
     49      54.6219      0.00000
     50      54.6803      0.00000

 k-point     2 :       0.0128    0.0000    0.0000
  band No.  band energies     occupation 
      1     -29.0560      2.00000
      2     -14.2938      2.00000
      3     -13.0808      2.00000
      4     -13.0802      2.00000
      5     -11.0904      2.00000
      6     -11.0904      2.00000
      7     -11.0892      2.00000
      8       0.1732      2.00000
      9       0.1755      2.00000
     10       0.1755      2.00000
     11       2.1547      2.00000
     12       2.1547      2.00000
     13       2.1560      2.00000
     14       2.9982      2.00000
     15       3.0025      2.00000
     16       3.0025      2.00000
     17       4.2927      1.81739
     18       4.2980      1.80483
     19       4.2980      1.80483
     20       6.4698      0.00000
     21       6.4764      0.00000
     22       8.8344      0.00000
     23       8.8347      0.00000
     24       9.9304      0.00000
     25      11.8626      0.00000
     26      11.8650      0.00000
     27      11.8650      0.00000
     28      18.4643      0.00000
     29      20.8140      0.00000
     30      20.8140      0.00000
     31      20.8146      0.00000
     32      24.5241      0.00000
     33      24.5502      0.00000
     34      24.5502      0.00000
     35      24.9895      0.00000
     36      25.0026      0.00000
     37      25.4623      0.00000
     38      26.7499      0.00000
     39      26.7545      0.00000
     40      26.7545      0.00000
     41      30.4333      0.00000
     42      30.4333      0.00000
     43      30.6545      0.00000
     44      34.2916      0.00000
     45      34.2952      0.00000
     46      34.3060      0.00000
     47      34.4910      0.00000
     48      34.4941      0.00000
     49      34.4968      0.00000
     50      52.5391      0.00000

 k-point     3 :       0.0256    0.0000    0.0000
  band No.  band energies     occupation 
      1     -29.0559      2.00000
      2     -14.2937      2.00000
      3     -13.0822      2.00000
      4     -13.0800      2.00000
      5     -11.0901      2.00000
      6     -11.0901      2.00000
      7     -11.0853      2.00000
      8       0.1657      2.00000
      9       0.1752      2.00000
     10       0.1752      2.00000
     11       2.1454      2.00000
     12       2.1454      2.00000
     13       2.1508      2.00000
     14       2.9787      2.00000
     15       2.9961      2.00000
     16       2.9961      2.00000
     17       4.2933      1.81606
     18       4.3142      1.76233
     19       4.3142      1.76233
     20       6.4699      0.00000
     21       6.4960      0.00000
     22       8.8432      0.00000
     23       8.8446      0.00000
     24       9.9427      0.00000
     25      11.8616      0.00000
     26      11.8711      0.00000
     27      11.8711      0.00000
     28      18.4658      0.00000
     29      20.8128      0.00000
     30      20.8128      0.00000
     31      20.8126      0.00000
     32      24.4466      0.00000
[...]
     42      31.0541      0.00000
     43      31.6746      0.00000
     44      33.1221      0.00000
     45      33.5367      0.00000
     46      33.5371      0.00000
     47      34.3270      0.00000
     48      35.1660      0.00000
     49      55.7874      0.00000
     50      55.8420      0.00000

 k-point   156 :       0.4487    0.4487    0.4487
  band No.  band energies     occupation 
      1     -28.9784      2.00000
      2     -13.0397      2.00000
      3     -12.9528      2.00000
      4     -12.9528      2.00000
      5     -11.3782      2.00000
      6     -11.3782      2.00000
      7     -11.3100      2.00000
      8      -1.7765      2.00000
      9      -1.0939      2.00000
     10      -1.0939      2.00000
     11      -0.5822      2.00000
     12      -0.5163      2.00000
     13      -0.5163      2.00000
     14       3.2962      2.00000
     15       3.2962      2.00000
     16       3.3479      2.00000
     17       6.7374      0.00000
     18       6.7439      0.00000
     19       6.7439      0.00000
     20      10.4750      0.00000
     21      10.4750      0.00000
     22      10.6580      0.00000
     23      10.7654      0.00000
     24      10.7654      0.00000
     25      13.3517      0.00000
     26      13.3517      0.00000
     27      14.1040      0.00000
     28      18.0495      0.00000
     29      18.2021      0.00000
     30      18.2021      0.00000
     31      20.1074      0.00000
     32      20.9211      0.00000
     33      21.0011      0.00000
     34      21.0011      0.00000
     35      23.4035      0.00000
     36      23.4035      0.00000
     37      23.7291      0.00000
     38      26.8773      0.00000
     39      27.2024      0.00000
     40      27.2024      0.00000
     41      31.3407      0.00000
     42      31.3407      0.00000
     43      31.8253      0.00000
     44      33.0775      0.00000
     45      33.4321      0.00000
     46      33.4322      0.00000
     47      34.1537      0.00000
     48      35.4015      0.00000
     49      55.7634      0.00000
     50      55.8535      0.00000

 k-point   157 :       0.4615    0.4615    0.4615
  band No.  band energies     occupation 
      1     -28.9777      2.00000
      2     -12.9949      2.00000
      3     -12.9441      2.00000
      4     -12.9441      2.00000
      5     -11.3921      2.00000
      6     -11.3921      2.00000
      7     -11.3518      2.00000
      8      -1.8093      2.00000
      9      -1.1122      2.00000
     10      -1.1122      2.00000
     11      -0.5647      2.00000
     12      -0.5267      2.00000
     13      -0.5267      2.00000
     14       3.3336      2.00000
     15       3.3336      2.00000
     16       3.3634      2.00000
     17       6.7601      0.00000
     18       6.7639      0.00000
     19       6.7639      0.00000
     20      10.5090      0.00000
     21      10.5090      0.00000
     22      10.6061      0.00000
     23      10.7174      0.00000
     24      10.7174      0.00000
     25      13.3874      0.00000
     26      13.3874      0.00000
     27      14.0568      0.00000
     28      18.0964      0.00000
     29      18.1806      0.00000
     30      18.1806      0.00000
     31      20.1898      0.00000
     32      20.9362      0.00000
     33      20.9824      0.00000
     34      20.9824      0.00000
     35      23.4924      0.00000
     36      23.4924      0.00000
     37      23.6886      0.00000
     38      26.7958      0.00000
     39      26.9877      0.00000
     40      26.9877      0.00000
     41      31.6207      0.00000
     42      31.6207      0.00000
     43      31.9568      0.00000
     44      33.0431      0.00000
     45      33.3101      0.00000
     46      33.3101      0.00000
     47      33.9953      0.00000
     48      35.6273      0.00000
     49      55.7417      0.00000
     50      55.8646      0.00000

 k-point   158 :       0.4744    0.4744    0.4744
  band No.  band energies     occupation 
      1     -28.9771      2.00000
      2     -12.9610      2.00000
      3     -12.9377      2.00000
      4     -12.9377      2.00000
      5     -11.4023      2.00000
      6     -11.4023      2.00000
      7     -11.3838      2.00000
      8      -1.8332      2.00000
      9      -1.1253      2.00000
     10      -1.1253      2.00000
     11      -0.5512      2.00000
     12      -0.5340      2.00000
     13      -0.5340      2.00000
     14       3.3610      2.00000
     15       3.3610      2.00000
     16       3.3745      2.00000
     17       6.7765      0.00000
     18       6.7782      0.00000
     19       6.7782      0.00000
     20      10.5280      0.00000
     21      10.5280      0.00000
     22      10.5675      0.00000
     23      10.6873      0.00000
     24      10.6873      0.00000
     25      13.4132      0.00000
     26      13.4132      0.00000
     27      14.0229      0.00000
     28      18.1285      0.00000
     29      18.1654      0.00000
     30      18.1654      0.00000
     31      20.2552      0.00000
     32      20.9471      0.00000
     33      20.9681      0.00000
     34      20.9681      0.00000
     35      23.5673      0.00000
     36      23.5673      0.00000
     37      23.6594      0.00000
     38      26.7328      0.00000
     39      26.8215      0.00000
     40      26.8215      0.00000
     41      31.8762      0.00000
     42      31.8762      0.00000
     43      32.0625      0.00000
     44      33.0186      0.00000
     45      33.1767      0.00000
     46      33.1767      0.00000
     47      33.8671      0.00000
     48      35.7846      0.00000
     49      55.7019      0.00000
     50      55.8924      0.00000

 k-point   159 :       0.4872    0.4872    0.4872
  band No.  band energies     occupation 
      1     -28.9767      2.00000
      2     -12.9397      2.00000
      3     -12.9338      2.00000
      4     -12.9338      2.00000
      5     -11.4086      2.00000
      6     -11.4086      2.00000
      7     -11.4039      2.00000
      8      -1.8479      2.00000
      9      -1.1333      2.00000
     10      -1.1333      2.00000
     11      -0.5428      2.00000
     12      -0.5384      2.00000
     13      -0.5384      2.00000
     14       3.3777      2.00000
     15       3.3777      2.00000
     16       3.3812      2.00000
     17       6.7864      0.00000
     18       6.7869      0.00000
     19       6.7869      0.00000
     20      10.5347      0.00000
     21      10.5347      0.00000
     22      10.5437      0.00000
     23      10.6735      0.00000
     24      10.6735      0.00000
     25      13.4287      0.00000
     26      13.4287      0.00000
     27      14.0025      0.00000
     28      18.1472      0.00000
     29      18.1564      0.00000
     30      18.1564      0.00000
     31      20.2973      0.00000
     32      20.9537      0.00000
     33      20.9590      0.00000
     34      20.9590      0.00000
     35      23.6179      0.00000
     36      23.6179      0.00000
     37      23.6418      0.00000
     38      26.6929      0.00000
     39      26.7157      0.00000
     40      26.7157      0.00000
     41      32.0755      0.00000
     42      32.0755      0.00000
     43      32.1326      0.00000
     44      33.0040      0.00000
     45      33.0547      0.00000
     46      33.0547      0.00000
     47      33.7825      0.00000
     48      35.8678      0.00000
     49      55.6808      0.00000
     50      55.9037      0.00000

 k-point   160 :       0.5000    0.5000    0.5000
  band No.  band energies     occupation 
      1     -28.9766      2.00000
      2     -12.9325      2.00000
      3     -12.9325      2.00000
      4     -12.9325      2.00000
      5     -11.4107      2.00000
      6     -11.4107      2.00000
      7     -11.4107      2.00000
      8      -1.8527      2.00000
      9      -1.1360      2.00000
     10      -1.1360      2.00000
     11      -0.5399      2.00000
     12      -0.5399      2.00000
     13      -0.5399      2.00000
     14       3.3834      2.00000
     15       3.3834      2.00000
     16       3.3834      2.00000
     17       6.7897      0.00000
     18       6.7897      0.00000
     19       6.7897      0.00000
     20      10.5357      0.00000
     21      10.5357      0.00000
     22      10.5357      0.00000
     23      10.6701      0.00000
     24      10.6701      0.00000
     25      13.4339      0.00000
     26      13.4339      0.00000
     27      13.9956      0.00000
     28      18.1534      0.00000
     29      18.1534      0.00000
     30      18.1534      0.00000
     31      20.3118      0.00000
     32      20.9559      0.00000
     33      20.9559      0.00000
     34      20.9559      0.00000
     35      23.6359      0.00000
     36      23.6359      0.00000
     37      23.6359      0.00000
     38      26.6793      0.00000
     39      26.6793      0.00000
     40      26.6793      0.00000
     41      32.1575      0.00000
     42      32.1575      0.00000
     43      32.1575      0.00000
     44      32.9991      0.00000
     45      32.9991      0.00000
     46      32.9991      0.00000
     47      33.7528      0.00000
     48      35.8933      0.00000
     49      55.6739      0.00000
     50      55.9052      0.00000


--------------------------------------------------------------------------------------------------------


 soft charge-density along one line, spin component           1
         0         1         2         3         4         5         6         7         8         9
 total charge-density along one line
 
 pseudopotential strength for first ion, spin component:           1
-11.985  -2.442   0.000   0.000  -0.000   0.000   0.000  -0.000
 -2.442  -2.273   0.000   0.000  -0.000   0.000   0.000  -0.000
  0.000   0.000 -14.457  -0.000   0.000 -14.190  -0.000   0.000
  0.000   0.000  -0.000 -14.457  -0.000  -0.000 -14.190  -0.000
 -0.000  -0.000   0.000  -0.000 -14.457   0.000  -0.000 -14.190
  0.000   0.000 -14.190  -0.000   0.000 -13.925  -0.000   0.000
  0.000   0.000  -0.000 -14.190  -0.000  -0.000 -13.925  -0.000
 -0.000  -0.000   0.000  -0.000 -14.190   0.000  -0.000 -13.925
  0.000   0.000  -0.000  -0.000   0.000  -0.000  -0.000   0.000
 -0.000  -0.000   0.000   0.000  -0.000   0.000   0.000  -0.000
 -0.000  -0.000  -0.000   0.000   0.000  -0.000   0.000   0.000
 -0.000  -0.000  -0.000  -0.000   0.000  -0.000  -0.000   0.000
 -0.000  -0.000  -0.000   0.000  -0.000  -0.000   0.000  -0.000
  0.000   0.000  -0.000  -0.000   0.000  -0.000  -0.000   0.000
 -0.000  -0.000   0.000   0.000  -0.000   0.000   0.000  -0.000
 -0.000  -0.000  -0.000   0.000   0.000  -0.000   0.000   0.000
 -0.000  -0.000  -0.000  -0.000   0.000  -0.000  -0.000   0.000
 -0.000  -0.000  -0.000   0.000  -0.000  -0.000   0.000  -0.000
 total augmentation occupancy for first ion, spin component:           1
  2.000   0.000   0.000   0.000   0.000   0.000   0.000   0.000   0.000   0.000   0.000   0.000   0.000   0.000   0.000   0.000
  0.000   1.999   0.000   0.000   0.000   0.000   0.000   0.000   0.000   0.000   0.000   0.000   0.000   0.000   0.000   0.000
  0.000   0.000   2.000   0.000   0.000   0.000   0.000   0.000   0.000   0.000   0.000   0.000   0.000   0.000   0.000   0.000
  0.000   0.000   0.000   2.000   0.000   0.000   0.000   0.000   0.000   0.000   0.000   0.000   0.000   0.000   0.000   0.000
  0.000   0.000   0.000   0.000   2.000   0.000   0.000   0.000   0.000   0.000   0.000   0.000   0.000   0.000   0.000   0.000
  0.000   0.000   0.000   0.000   0.000   0.000   0.000   0.000   0.000   0.000   0.000   0.000   0.000   0.000   0.000   0.000
  0.000   0.000   0.000   0.000   0.000   0.000   0.000   0.000   0.000   0.000   0.000   0.000   0.000   0.000   0.000   0.000
  0.000   0.000   0.000   0.000   0.000   0.000   0.000   0.000   0.000   0.000   0.000   0.000   0.000   0.000   0.000   0.000
  0.000   0.000   0.000   0.000   0.000   0.000   0.000   0.000   0.000   0.000   0.000   0.000   0.000   0.000   0.000   0.000
  0.000   0.000   0.000   0.000   0.000   0.000   0.000   0.000   0.000   0.000   0.000   0.000   0.000   0.000   0.000   0.000
  0.000   0.000   0.000   0.000   0.000   0.000   0.000   0.000   0.000   0.000   0.000   0.000   0.000   0.000   0.000   0.000
  0.000   0.000   0.000   0.000   0.000   0.000   0.000   0.000   0.000   0.000   0.000   0.000   0.000   0.000   0.000   0.000
  0.000   0.000   0.000   0.000   0.000   0.000   0.000   0.000   0.000   0.000   0.000   0.000   0.000   0.000   0.000   0.000
  0.000   0.000   0.000   0.000   0.000   0.000   0.000   0.000   0.000   0.000   0.000   0.000   0.000   0.000   0.000   0.000
  0.000   0.000   0.000   0.000   0.000   0.000   0.000   0.000   0.000   0.000   0.000   0.000   0.000   0.000   0.000   0.000
  0.000   0.000   0.000   0.000   0.000   0.000   0.000   0.000   0.000   0.000   0.000   0.000   0.000   0.000   0.000   0.000
  0.000   0.000   0.000   0.000   0.000   0.000   0.000   0.000   0.000   0.000   0.000   0.000   0.000   0.000   0.000   0.000
  0.000   0.000   0.000   0.000   0.000   0.000   0.000   0.000   0.000   0.000   0.000   0.000   0.000   0.000   0.000   0.000


------------------------ aborting loop because EDIFF is reached ----------------------------------------


 


 total charge     
 
# of ion       s       p       d       tot
------------------------------------------
    1        1.996   5.831   0.191   8.018
    2        0.473   1.282   3.202   4.957
    3        1.525   3.797   0.000   5.321
    4        1.546   3.558   0.000   5.104
    5        1.565   3.338   0.000   4.903
--------------------------------------------------
tot          7.105  17.805   3.393  28.302
 
    CHARGE:  cpu time    0.1754: real time    0.1754
    FORLOC:  cpu time    0.0023: real time    0.0024
    FORNL :  cpu time    1.8099: real time    1.8102
    STRESS:  cpu time    5.1136: real time    5.1142
    FORCOR:  cpu time    0.0169: real time    0.0169
    FORHAR:  cpu time    0.0040: real time    0.0040
    OFIELD:  cpu time    0.0000: real time    0.0000

  FORCE on cell =-STRESS in cart. coord.  units (eV):
  Direction    XX          YY          ZZ          XY          YZ          ZX
  --------------------------------------------------------------------------------------
  Alpha Z   180.95686   180.95686   180.95686
  Ewald    -682.63392  -682.63392  -682.63392    -0.00000     0.00000     0.00000
  Hartree   145.73860   145.73860   145.73860    -0.00000    -0.00000    -0.00000
  E(xc)    -149.40361  -149.40361  -149.40361     0.00000    -0.00000     0.00000
  Local       6.48150     6.48150     6.48150     0.00000     0.00000    -0.00000
  n-local  -111.91634  -110.06747  -107.27161    -0.35857    -0.17617    -0.17616
  augment    44.00296    44.00296    44.00296     0.00000     0.00000     0.00000
  Kinetic   558.62218   573.80689   577.54131    -1.57960    -0.85119    -0.85139
  Fock        0.00000     0.00000     0.00000     0.00000     0.00000     0.00000
  -------------------------------------------------------------------------------------
  Total       5.38070     5.38070     5.38070     0.00000     0.00000    -0.00000
  in kB     151.47642   151.47642   151.47642     0.00000     0.00000    -0.00000
  external pressure =      151.48 kB  Pullay stress =        0.00 kB


 VOLUME and BASIS-vectors are now :
 -----------------------------------------------------------------------------
  energy-cutoff  :      600.00
  volume of cell :       56.91
      direct lattice vectors                 reciprocal lattice vectors
     3.846520000  0.000000000  0.000000000     0.259975250  0.000000000  0.000000000
     0.000000000  3.846520000  0.000000000     0.000000000  0.259975250  0.000000000
     0.000000000  0.000000000  3.846520000     0.000000000  0.000000000  0.259975250

  length of vectors
     3.846520000  3.846520000  3.846520000     0.259975250  0.259975250  0.259975250


 FORCES acting on ions
    electron-ion (+dipol)            ewald-force                    non-local-force                 convergence-correction
 -----------------------------------------------------------------------------------------------
   -.476E-14 -.387E-14 -.905E-14   -.479E-14 -.313E-14 -.318E-14   0.000E+00 0.000E+00 0.000E+00   -.100E-13 0.981E-14 -.322E-14
   0.300E-13 -.848E-12 -.152E-12   -.289E-14 -.187E-14 0.208E-15   0.000E+00 0.000E+00 0.000E+00   -.234E-14 -.215E-14 -.235E-13
   0.161E-12 -.146E-11 -.143E-11   0.406E-14 -.102E-14 0.290E-15   0.000E+00 0.000E+00 0.000E+00   -.183E-13 -.388E-14 0.418E-13
   0.160E-12 -.602E-14 -.204E-11   0.190E-14 0.339E-14 0.147E-14   0.000E+00 0.000E+00 0.000E+00   -.176E-13 0.678E-14 -.141E-13
   -.925E-14 0.163E-12 0.153E-12   0.166E-14 0.231E-14 0.145E-14   0.000E+00 0.000E+00 0.000E+00   -.528E-14 -.149E-13 -.289E-13
 -----------------------------------------------------------------------------------------------
   0.337E-12 -.216E-11 -.348E-11   -.550E-16 -.318E-15 0.244E-15   0.000E+00 0.000E+00 0.000E+00   -.535E-13 -.432E-14 -.280E-13
 
 
 POSITION                                       TOTAL-FORCE (eV/Angst)
 -----------------------------------------------------------------------------------
      0.00000      0.00000      0.00000         0.000000      0.000000      0.000000
      1.92326      1.92326      1.92326         0.000000      0.000000      0.000000
      1.92326      1.92326      0.00000         0.000000      0.000000      0.000000
      1.92326      0.00000      1.92326         0.000000      0.000000      0.000000
      0.00000      1.92326      1.92326         0.000000      0.000000      0.000000
 -----------------------------------------------------------------------------------
    total drift:                                0.000000     -0.000000     -0.000000


--------------------------------------------------------------------------------------------------------



  FREE ENERGIE OF THE ION-ELECTRON SYSTEM (eV)
  ---------------------------------------------------
  free  energy   TOTEN  =       -37.82869547 eV

  energy  without entropy=      -37.76941188  energy(sigma->0) =      -37.79905367
 


--------------------------------------------------------------------------------------------------------


    POTLOK:  cpu time    0.0323: real time    0.0324


--------------------------------------------------------------------------------------------------------


 writing wavefunctions
     LOOP+:  cpu time   68.6650: real time   68.6742
    4ORBIT:  cpu time    0.0000: real time    0.0000
 


 total charge     
 
# of ion       s       p       d       tot
------------------------------------------
    1        1.996   5.831   0.191   8.018
    2        0.473   1.282   3.202   4.957
    3        1.525   3.797   0.000   5.321
    4        1.546   3.558   0.000   5.104
    5        1.565   3.338   0.000   4.903
--------------------------------------------------
tot          7.105  17.805   3.393  28.302
 

 total amount of memory used by VASP MPI-rank0   220587. kBytes
=======================================================================

   base      :      30000. kBytes
   nonl-proj :     133902. kBytes
   fftplans  :       3454. kBytes
   grid      :       2082. kBytes
   one-center:         77. kBytes
   wavefun   :      51072. kBytes
 
  
  
 General timing and accounting informations for this job:
 ========================================================
  
                  Total CPU time used (sec):       72.108
                            User time (sec):       70.241
                          System time (sec):        1.867
                         Elapsed time (sec):       72.114
  
                   Maximum memory used (kb):      221028.
                   Average memory used (kb):           0.
  
                          Minor page faults:       287041
                          Major page faults:            0
                 Voluntary context switches:          170
