 vasp.5.4.4.18Apr17-6-g9f103f2a35 (build Sep 25 2018 16:35:25) complex          
  
 executed on             LinuxIFC date 2019.03.15  14:14:51
 running on   16 total cores
 distrk:  each k-point on   16 cores,    1 groups
 distr:  one band on NCORES_PER_BAND=   8 cores,    2 groups


--------------------------------------------------------------------------------------------------------


 INCAR:
 POTCAR:    PAW Mg_pv 13Apr2007                   
 POTCAR:    PAW Mg_pv 13Apr2007                   
 POTCAR:    PAW Mg_pv 13Apr2007                   
   VRHFIN =Mg: p6s2                                                             
   LEXCH  = CA                                                                  
   EATOM  =  1057.2292 eV,   77.7042 Ry                                         
                                                                                
   TITEL  = PAW Mg_pv 13Apr2007                                                 
   LULTRA =        F    use ultrasoft PP ?                                      
   IUNSCR =        1    unscreen: 0-lin 1-nonlin 2-no                           
   RPACOR =    1.500    partial core radius                                     
   POMASS =   24.305; ZVAL   =    8.000    mass and valenz                      
   RCORE  =    2.000    outmost cutoff radius                                   
   RWIGS  =    2.000; RWIGS  =    1.058    wigner-seitz radius (au A)           
   ENMAX  =  403.538; ENMIN  =  302.653 eV                                      
   RCLOC  =    1.506    cutoff for local pot                                    
   LCOR   =        T    correct aug charges                                     
   LPAW   =        T    paw PP                                                  
   EAUG   =  758.780                                                            
   DEXC   =     .000                                                            
   RMAX   =    2.295    core radius for proj-oper                               
   RAUG   =    1.300    factor for augmentation sphere                          
   RDEP   =    2.025    radius for radial grids                                 
   QCUT   =   -5.446; QGAM   =   10.892    optimization parameters              
                                                                                
   Description                                                                  
     l     E      TYP  RCUT    TYP  RCUT                                        
     1   .000     23  1.600                                                     
     1   .200     23  1.600                                                     
     0   .000     23  2.000                                                     
     0  4.500     23  2.000                                                     
     2   .000     23  2.000                                                     
  local pseudopotential read in
  partial core-charges read in
  atomic valenz-charges read in
  non local Contribution for L=           1  read in
    real space projection operators read in
  non local Contribution for L=           1  read in
    real space projection operators read in
  non local Contribution for L=           0  read in
    real space projection operators read in
  non local Contribution for L=           0  read in
    real space projection operators read in
  non local Contribution for L=           2  read in
    real space projection operators read in
    PAW grid and wavefunctions read in
 
   number of l-projection  operators is LMAX  =           5
   number of lm-projection operators is LMMAX =          13
 
 POTCAR:    PAW Mg_pv 13Apr2007                   
   VRHFIN =Mg: p6s2                                                             
   LEXCH  = CA                                                                  
   EATOM  =  1057.2292 eV,   77.7042 Ry                                         
                                                                                
   TITEL  = PAW Mg_pv 13Apr2007                                                 
   LULTRA =        F    use ultrasoft PP ?                                      
   IUNSCR =        1    unscreen: 0-lin 1-nonlin 2-no                           
   RPACOR =    1.500    partial core radius                                     
   POMASS =   24.305; ZVAL   =    8.000    mass and valenz                      
   RCORE  =    2.000    outmost cutoff radius                                   
   RWIGS  =    2.000; RWIGS  =    1.058    wigner-seitz radius (au A)           
   ENMAX  =  403.538; ENMIN  =  302.653 eV                                      
   RCLOC  =    1.506    cutoff for local pot                                    
   LCOR   =        T    correct aug charges                                     
   LPAW   =        T    paw PP                                                  
   EAUG   =  758.780                                                            
   DEXC   =     .000                                                            
   RMAX   =    2.295    core radius for proj-oper                               
   RAUG   =    1.300    factor for augmentation sphere                          
   RDEP   =    2.025    radius for radial grids                                 
   QCUT   =   -5.446; QGAM   =   10.892    optimization parameters              
                                                                                
   Description                                                                  
     l     E      TYP  RCUT    TYP  RCUT                                        
     1   .000     23  1.600                                                     
     1   .200     23  1.600                                                     
     0   .000     23  2.000                                                     
     0  4.500     23  2.000                                                     
     2   .000     23  2.000                                                     
  local pseudopotential read in
  partial core-charges read in
  atomic valenz-charges read in
  non local Contribution for L=           1  read in
    real space projection operators read in
  non local Contribution for L=           1  read in
    real space projection operators read in
  non local Contribution for L=           0  read in
    real space projection operators read in
  non local Contribution for L=           0  read in
    real space projection operators read in
  non local Contribution for L=           2  read in
    real space projection operators read in
    PAW grid and wavefunctions read in
 
   number of l-projection  operators is LMAX  =           5
   number of lm-projection operators is LMMAX =          13
 

 ----------------------------------------------------------------------------- 
|                                                                             |
|  ADVICE TO THIS USER RUNNING 'VASP/VAMP'   (HEAR YOUR MASTER'S VOICE ...):  |
|                                                                             |
|      You have a (more or less) 'large supercell' and for larger cells       |
|      it might be more efficient to use real space projection operators      |
|      So try LREAL= Auto  in the INCAR   file.                               |
|      Mind: If you want to do a very accurate calculations keep the          |
|      reciprocal projection scheme          (i.e. LREAL=.FALSE.)             |
|                                                                             |
 ----------------------------------------------------------------------------- 


 ----------------------------------------------------------------------------- 
|                                                                             |
|  ADVICE TO THIS USER RUNNING 'VASP/VAMP'   (HEAR YOUR MASTER'S VOICE ...):  |
|                                                                             |
|      You enforced a specific xc-type in the INCAR file,                     |
|      a different type was found on the POTCAR file                          |
|          I HOPE YOU KNOW, WHAT YOU ARE  DOING                               |
|                                                                             |
 ----------------------------------------------------------------------------- 

  PAW Mg_pv 13Apr2007                   :
 energy of atom  1       EATOM=-1057.2292
 kinetic energy error for atom=    0.0356 (will be added to EATOM!!)
  PAW Mg_pv 13Apr2007                   :
 energy of atom  2       EATOM=-1057.2292
 kinetic energy error for atom=    0.0356 (will be added to EATOM!!)
 
 
 POSCAR: Mg  B                                   
  positions in cartesian coordinates
  No initial velocities read in
 exchange correlation table for  LEXCH =        8
   RHO(1)=    0.500       N(1)  =     2000
   RHO(2)=  100.500       N(2)  =     4000
 


--------------------------------------------------------------------------------------------------------


 ion  position               nearest neighbor table
   1  0.000  0.000  0.000-  13 2.50  15 2.50  18 2.50  20 2.50  10 2.50  12 2.50  21 2.50  23 2.50
                            11 2.50  22 2.50   9 2.50  24 2.50
   2  0.000  0.000  0.500-  13 2.50  15 2.50  18 2.50  20 2.50  10 2.50  12 2.50  21 2.50  23 2.50
                            11 2.50  22 2.50   9 2.50  24 2.50
   3  0.000  0.500  0.000-   9 2.50  11 2.50  22 2.50  24 2.50  17 2.50  19 2.50  14 2.50  16 2.50
                            13 2.50  20 2.50  15 2.50  18 2.50
   4  0.000  0.500  0.500-   9 2.50  11 2.50  22 2.50  24 2.50  17 2.50  19 2.50  14 2.50  16 2.50
                            13 2.50  20 2.50  15 2.50  18 2.50
   5  0.500  0.000  0.000-  10 2.50  12 2.50  21 2.50  23 2.50  18 2.50  20 2.50  13 2.50  15 2.50
                            19 2.50  16 2.50  17 2.50  14 2.50
   6  0.500  0.000  0.500-  10 2.50  12 2.50  21 2.50  23 2.50  18 2.50  20 2.50  13 2.50  15 2.50
                            19 2.50  16 2.50  17 2.50  14 2.50
   7  0.500  0.500  0.000-  14 2.50  16 2.50  17 2.50  19 2.50   9 2.50  11 2.50  22 2.50  24 2.50
                            21 2.50  10 2.50  23 2.50  12 2.50
   8  0.500  0.500  0.500-  14 2.50  16 2.50  17 2.50  19 2.50   9 2.50  11 2.50  22 2.50  24 2.50
                            21 2.50  10 2.50  23 2.50  12 2.50
   9  0.167  0.333  0.250-  18 1.77  14 1.77  10 1.77   4 2.50   3 2.50   8 2.50   7 2.50   2 2.50
                             1 2.50
  10  0.333  0.167  0.250-  17 1.77  13 1.77   9 1.77   6 2.50   5 2.50   2 2.50   1 2.50   8 2.50
                             7 2.50
  11  0.167  0.333  0.750-  20 1.77  16 1.77  12 1.77   4 2.50   3 2.50   8 2.50   7 2.50   2 2.50
                             1 2.50
  12  0.333  0.167  0.750-  19 1.77  15 1.77  11 1.77   6 2.50   5 2.50   2 2.50   1 2.50   8 2.50
                             7 2.50
  13  0.167  0.833  0.250-  22 1.77  10 1.77  14 1.77   2 2.50   1 2.50   6 2.50   5 2.50   4 2.50
                             3 2.50
  14  0.333  0.667  0.250-  21 1.77   9 1.77  13 1.77   8 2.50   7 2.50   4 2.50   3 2.50   6 2.50
                             5 2.50
  15  0.167  0.833  0.750-  24 1.77  12 1.77  16 1.77   2 2.50   1 2.50   6 2.50   5 2.50   4 2.50
                             3 2.50
  16  0.333  0.667  0.750-  23 1.77  11 1.77  15 1.77   8 2.50   7 2.50   4 2.50   3 2.50   6 2.50
                             5 2.50
  17  0.667  0.333  0.250-  10 1.77  22 1.77  18 1.77   8 2.50   7 2.50   4 2.50   3 2.50   6 2.50
                             5 2.50
  18  0.833  0.167  0.250-   9 1.77  21 1.77  17 1.77   2 2.50   1 2.50   6 2.50   5 2.50   4 2.50
                             3 2.50
  19  0.667  0.333  0.750-  12 1.77  24 1.77  20 1.77   8 2.50   7 2.50   4 2.50   3 2.50   6 2.50
                             5 2.50
  20  0.833  0.167  0.750-  11 1.77  23 1.77  19 1.77   2 2.50   1 2.50   6 2.50   5 2.50   4 2.50
                             3 2.50
  21  0.667  0.833  0.250-  14 1.77  18 1.77  22 1.77   6 2.50   5 2.50   2 2.50   1 2.50   8 2.50
                             7 2.50
  22  0.833  0.667  0.250-  13 1.77  17 1.77  21 1.77   4 2.50   3 2.50   8 2.50   7 2.50   2 2.50
                             1 2.50
  23  0.667  0.833  0.750-  16 1.77  20 1.77  24 1.77   6 2.50   5 2.50   2 2.50   1 2.50   8 2.50
                             7 2.50
  24  0.833  0.667  0.750-  15 1.77  19 1.77  23 1.77   4 2.50   3 2.50   8 2.50   7 2.50   2 2.50
                             1 2.50
 
  LATTYP: Found a hexagonal cell.
 ALAT       =     6.1473600639
 C/A-ratio  =     1.1498757071
  
  Lattice vectors:
  
 A1 = (   6.1473600000,   0.0000000000,   0.0000000000)
 A2 = (  -3.0736800000,   5.3237700000,   0.0000000000)
 A3 = (   0.0000000000,   0.0000000000,   7.0687000000)


Analysis of symmetry for initial positions (statically):
=====================================================================
 Subroutine PRICEL returns following result:
 
  LATTYP: Found a hexagonal cell.
 ALAT       =     3.0736800320
 C/A-ratio  =     1.1498757071
  
  Lattice vectors:
  
 A1 = (   3.0736800000,   0.0000000000,   0.0000000000)
 A2 = (  -1.5368400000,   2.6618850000,   0.0000000000)
 A3 = (   0.0000000000,   0.0000000000,   3.5343500000)
 
   8 primitive cells build up your supercell.
 

 Routine SETGRP: Setting up the symmetry group for a 
 hexagonal supercell.


 Subroutine GETGRP returns: Found 24 space group operations
 (whereof 24 operations were pure point group operations)
 out of a pool of 24 trial point group operations.


The static configuration has the point symmetry D_6h.


Analysis of symmetry for dynamics (positions and initial velocities):
=====================================================================
 Subroutine PRICEL returns following result:
 
  LATTYP: Found a hexagonal cell.
 ALAT       =     3.0736800320
 C/A-ratio  =     1.1498757071
  
  Lattice vectors:
  
 A1 = (   3.0736800000,   0.0000000000,   0.0000000000)
 A2 = (  -1.5368400000,   2.6618850000,   0.0000000000)
 A3 = (   0.0000000000,   0.0000000000,   3.5343500000)
 
   8 primitive cells build up your supercell.
 

 Routine SETGRP: Setting up the symmetry group for a 
 hexagonal supercell.


 Subroutine GETGRP returns: Found 24 space group operations
 (whereof 24 operations were pure point group operations)
 out of a pool of 24 trial point group operations.


The dynamic configuration has the point symmetry D_6h.


 Subroutine INISYM returns: Found 24 space group operations
 (whereof 24 operations are pure point group operations),
 and found     8 'primitive' translations

 
 
 KPOINTS: KPOINTS created by Atomic Simulation Env
  k-points in reciprocal lattice
Space group operators:
 irot       det(A)        alpha          n_x          n_y          n_z        tau_x        tau_y        tau_z
    1     1.000000     0.000000     1.000000     0.000000     0.000000     0.000000     0.000000     0.000000
    2    -1.000000     0.000000     1.000000     0.000000     0.000000     0.000000     0.000000     0.000000
    3     1.000000    60.000000     0.000000     0.000000    -1.000000     0.000000     0.000000     0.000000
    4    -1.000000    60.000000     0.000000     0.000000    -1.000000     0.000000     0.000000     0.000000
    5     1.000000   120.000000     0.000000     0.000000    -1.000000     0.000000     0.000000     0.000000
    6    -1.000000   120.000000     0.000000     0.000000    -1.000000     0.000000     0.000000     0.000000
    7     1.000000   180.000000     0.000000     0.000000     1.000000     0.000000     0.000000     0.000000
    8    -1.000000   180.000000     0.000000     0.000000     1.000000     0.000000     0.000000     0.000000
    9     1.000000   120.000000     0.000000     0.000000     1.000000     0.000000     0.000000     0.000000
   10    -1.000000   120.000000     0.000000     0.000000     1.000000     0.000000     0.000000     0.000000
   11     1.000000    60.000000     0.000000     0.000000     1.000000     0.000000     0.000000     0.000000
   12    -1.000000    60.000000     0.000000     0.000000     1.000000     0.000000     0.000000     0.000000
   13     1.000000   180.000000     1.000000     0.000000     0.000000     0.000000     0.000000     0.000000
   14    -1.000000   180.000000     1.000000     0.000000     0.000000     0.000000     0.000000     0.000000
   15     1.000000   180.000000     0.866025    -0.500000     0.000000     0.000000     0.000000     0.000000
   16    -1.000000   180.000000     0.866025    -0.500000     0.000000     0.000000     0.000000     0.000000
   17     1.000000   180.000000     0.500000    -0.866025     0.000000     0.000000     0.000000     0.000000
   18    -1.000000   180.000000     0.500000    -0.866025     0.000000     0.000000     0.000000     0.000000
   19     1.000000   179.999999     0.000000     1.000000     0.000000     0.000000     0.000000     0.000000
   20    -1.000000   179.999999     0.000000     1.000000     0.000000     0.000000     0.000000     0.000000
   21     1.000000   180.000000    -0.500000    -0.866025     0.000000     0.000000     0.000000     0.000000
   22    -1.000000   180.000000    -0.500000    -0.866025     0.000000     0.000000     0.000000     0.000000
   23     1.000000   180.000000     0.866025     0.500000     0.000000     0.000000     0.000000     0.000000
   24    -1.000000   180.000000     0.866025     0.500000     0.000000     0.000000     0.000000     0.000000


--------------------------------------------------------------------------------------------------------




 Dimension of arrays:
   k-points           NKPTS =    200   k-points in BZ     NKDIM =    200   number of bands    NBANDS=     96
   number of dos      NEDOS =    301   number of ions     NIONS =     24
   non local maximal  LDIM  =      5   non local SUM 2l+1 LMDIM =     13
   total plane-waves  NPLWV = 124416
   max r-space proj   IRMAX =      1   max aug-charges    IRDMAX=  45993
   dimension x,y,z NGX =    48 NGY =   48 NGZ =   54
   dimension x,y,z NGXF=    80 NGYF=   80 NGZF=   84
   support grid    NGXF=   160 NGYF=  160 NGZF=  168
   ions per type =               8  16
   NGX,Y,Z   is equivalent  to a cutoff of  12.98, 12.98, 12.70 a.u.
   NGXF,Y,Z  is equivalent  to a cutoff of  21.63, 21.63, 19.76 a.u.

 SYSTEM =  unknown system                          
 POSCAR =  Mg  B                                   

 Startparameter for this run:
   NWRITE =      2    write-flag & timer
   PREC   = high      normal or accurate (medium, high low for compatibility)
   ISTART =      1    job   : 0-new  1-cont  2-samecut
   ICHARG =     11    charge: 1-file 2-atom 10-const
   ISPIN  =      1    spin polarized calculation?
   LNONCOLLINEAR =      F non collinear calculations
   LSORBIT =      F    spin-orbit coupling
   INIWAV =      1    electr: 0-lowe 1-rand  2-diag
   LASPH  =      F    aspherical Exc in radial PAW
   METAGGA=      F    non-selfconsistent MetaGGA calc.

 Electronic Relaxation 1
   ENCUT  =  490.0 eV  36.01 Ry    6.00 a.u.  11.10 11.10 12.76*2*pi/ulx,y,z
   ENINI  =  490.0     initial cutoff
   ENAUG  =  758.8 eV  augmentation charge cutoff
   NELM   =    100;   NELMIN=  2; NELMDL= -6     # of ELM steps 
   EDIFF  = 0.1E-06   stopping-criterion for ELM
   LREAL  =      F    real-space projection
   NLSPLINE    = F    spline interpolate recip. space projectors
   LCOMPAT=      F    compatible to vasp.4.4
   GGA_COMPAT  = T    GGA compatible to vasp.4.4-vasp.4.6
   LMAXPAW     = -100 max onsite density
   LMAXMIX     =    4 max onsite mixed and CHGCAR
   VOSKOWN=      0    Vosko Wilk Nusair interpolation
   ROPT   =    0.00000   0.00000
 Ionic relaxation
   EDIFFG = -.1E-02   stopping-criterion for IOM
   NSW    =      0    number of steps for IOM
   NBLOCK =      1;   KBLOCK =      1    inner block; outer block 
   IBRION =     -1    ionic relax: 0-MD 1-quasi-New 2-CG
   NFREE  =      0    steps in history (QN), initial steepest desc. (CG)
   ISIF   =      3    stress and relaxation
   IWAVPR =     10    prediction:  0-non 1-charg 2-wave 3-comb
   ISYM   =      2    0-nonsym 1-usesym 2-fastsym
   LCORR  =      T    Harris-Foulkes like correction to forces

   POTIM  = 0.5500    time-step for ionic-motion
   TEIN   =    0.0    initial temperature
   TEBEG  =    0.0;   TEEND  =   0.0 temperature during run
   SMASS  =   0.70    Nose mass-parameter (am)
   estimated Nose-frequenzy (Omega)   =  0.21E+11 period in steps =****** mass=   0.202E-27a.u.
   SCALEE = 1.0000    scale energy and forces
   NPACO  =    256;   APACO  = 16.0  distance and # of slots for P.C.
   PSTRESS=    0.0 pullay stress

  Mass of Ions in am
   POMASS =  24.30 24.30
  Ionic Valenz
   ZVAL   =   8.00  8.00
  Atomic Wigner-Seitz radii
   RWIGS  =  -1.00 -1.00
  virtual crystal weights 
   VCA    =   1.00  1.00
   NELECT =     192.0000    total number of electrons
   NUPDOWN=      -1.0000    fix difference up-down

 DOS related values:
   EMIN   =  10.00;   EMAX   =-10.00  energy-range for DOS
   EFERMI =   0.00
   ISMEAR =     0;   SIGMA  =   0.10  broadening in eV -4-tet -1-fermi 0-gaus

 Electronic relaxation 2 (details)
   IALGO  =     38    algorithm
   LDIAG  =      T    sub-space diagonalisation (order eigenvalues)
   LSUBROT=      F    optimize rotation matrix (better conditioning)
   TURBO    =      0    0=normal 1=particle mesh
   IRESTART =      0    0=no restart 2=restart with 2 vectors
   NREBOOT  =      0    no. of reboots
   NMIN     =      0    reboot dimension
   EREF     =   0.00    reference energy to select bands
   IMIX   =      4    mixing-type and parameters
     AMIX     =   0.40;   BMIX     =  1.00
     AMIX_MAG =   1.60;   BMIX_MAG =  1.00
     AMIN     =   0.10
     WC   =   100.;   INIMIX=   1;  MIXPRE=   1;  MAXMIX= -45

 Intra band minimization:
   WEIMIN = 0.0000     energy-eigenvalue tresh-hold
   EBREAK =  0.26E-09  absolut break condition
   DEPER  =   0.30     relativ break condition  

   TIME   =   0.40     timestep for ELM

  volume/ion in A,a.u.               =       9.64        65.05
  Fermi-wavevector in a.u.,A,eV,Ry     =   1.538483  2.907312 32.204044  2.366930
  Thomas-Fermi vector in A             =   2.644845
 
 Write flags
   LWAVE        =      T    write WAVECAR
   LDOWNSAMPLE  =      F    k-point downsampling of WAVECAR
   LCHARG       =      T    write CHGCAR
   LVTOT        =      F    write LOCPOT, total local potential
   LVHAR        =      F    write LOCPOT, Hartree potential only
   LELF         =      F    write electronic localiz. function (ELF)
   LORBIT       =     12    0 simple, 1 ext, 2 COOP (PROOUT), +10 PAW based schemes


 Dipole corrections
   LMONO  =      F    monopole corrections only (constant potential shift)
   LDIPOL =      F    correct potential (dipole corrections)
   IDIPOL =      0    1-x, 2-y, 3-z, 4-all directions 
   EPSILON=  1.0000000 bulk dielectric constant

 Exchange correlation treatment:
   GGA     =    PE    GGA type
   LEXCH   =     8    internal setting for exchange type
   VOSKOWN=      0    Vosko Wilk Nusair interpolation
   LHFCALC =     F    Hartree Fock is set to
   LHFONE  =     F    Hartree Fock one center treatment
   AEXX    =    0.0000 exact exchange contribution

 Linear response parameters
   LEPSILON=     F    determine dielectric tensor
   LRPA    =     F    only Hartree local field effects (RPA)
   LNABLA  =     F    use nabla operator in PAW spheres
   LVEL    =     F    velocity operator in full k-point grid
   LINTERFAST=   F  fast interpolation
   KINTER  =     0    interpolate to denser k-point grid
   CSHIFT  =0.1000    complex shift for real part using Kramers Kronig
   OMEGAMAX=  -1.0    maximum frequency
   DEG_THRESHOLD= 0.2000000E-02 threshold for treating states as degnerate
   RTIME   =   -0.100 relaxation time in fs
  (WPLASMAI=    0.000 imaginary part of plasma frequency in eV, 0.658/RTIME)
   DFIELD  = 0.0000000 0.0000000 0.0000000 field for delta impulse in time
 
 Orbital magnetization related:
   ORBITALMAG=     F  switch on orbital magnetization
   LCHIMAG   =     F  perturbation theory with respect to B field
   DQ        =  0.001000  dq finite difference perturbation B field
   LLRAUG    =     F  two centre corrections for induced B field



--------------------------------------------------------------------------------------------------------


 Static calculation
 charge density and potential remain constant during run
 non-spin polarized calculation
 Variant of blocked Davidson
 Davidson routine will perform the subspace rotation
 perform sub-space diagonalisation
    after iterative eigenvector-optimisation
 no mixing
 2*number of bands equal to number of electrons
 reciprocal scheme for non local part
 use partial core corrections
 calculate Harris-corrections to forces 
   (improved forces if not selfconsistent)
 use gradient corrections 
 WARNING: stress and forces are not correct
  (second derivative of E(xc) not defined)
 use of overlap-Matrix (Vanderbilt PP)
 Gauss-broadening in eV      SIGMA  =   0.10


--------------------------------------------------------------------------------------------------------


  energy-cutoff  :      490.00
  volume of cell :      231.34
      direct lattice vectors                 reciprocal lattice vectors
     6.147360000  0.000000000  0.000000000     0.162671456  0.093918407  0.000000000
    -3.073680000  5.323770000  0.000000000     0.000000000  0.187836815  0.000000000
     0.000000000  0.000000000  7.068700000     0.000000000  0.000000000  0.141468728

  length of vectors
     6.147360000  6.147360064  7.068700000     0.187836817  0.187836815  0.141468728


 
 old parameters found on file WAVECAR:
  energy-cutoff  :      490.00
  volume of cell :      231.34
      direct lattice vectors                 reciprocal lattice vectors
     6.147360000  0.000000000  0.000000000     0.162671456  0.093918407  0.000000000
    -3.073680000  5.323770000  0.000000000     0.000000000  0.187836815  0.000000000
     0.000000000  0.000000000  7.068700000     0.000000000  0.000000000  0.141468728

  length of vectors

 
 k-points in units of 2pi/SCALE and weight: KPOINTS created by Atomic Simulation Env
   0.00000000  0.00000000  0.00000000       0.005
   0.00301251  0.00521782  0.00000000       0.005
   0.00602486  0.01043537  0.00000000       0.005
   0.00903738  0.01565319  0.00000000       0.005
   0.01204973  0.02087074  0.00000000       0.005
   0.01506224  0.02608856  0.00000000       0.005
   0.01807459  0.03130610  0.00000000       0.005
   0.02108710  0.03652393  0.00000000       0.005
   0.02409945  0.04174147  0.00000000       0.005
   0.02711196  0.04695930  0.00000000       0.005
   0.03012431  0.05217684  0.00000000       0.005
   0.03313683  0.05739467  0.00000000       0.005
   0.03614918  0.06261221  0.00000000       0.005
   0.03916169  0.06783003  0.00000000       0.005
   0.04217404  0.07304758  0.00000000       0.005
   0.04518655  0.07826540  0.00000000       0.005
   0.04819890  0.08348295  0.00000000       0.005
   0.05121141  0.08870077  0.00000000       0.005
   0.05422376  0.09391831  0.00000000       0.005
   0.05723628  0.09913614  0.00000000       0.005
   0.06024863  0.10435368  0.00000000       0.005
   0.06326114  0.10957151  0.00000000       0.005
   0.06627349  0.11478905  0.00000000       0.005
   0.06928600  0.12000687  0.00000000       0.005
   0.07229835  0.12522442  0.00000000       0.005
   0.07531087  0.13044224  0.00000000       0.005
   0.07832322  0.13565979  0.00000000       0.005
   0.08133573  0.14087761  0.00000000       0.005
   0.08434824  0.14609544  0.00000000       0.005
   0.08736059  0.15131298  0.00000000       0.005
   0.09037310  0.15653080  0.00000000       0.005
   0.09338545  0.16174835  0.00000000       0.005
   0.09639797  0.16696617  0.00000000       0.005
   0.09941032  0.17218372  0.00000000       0.005
   0.10242283  0.17740154  0.00000000       0.005
   0.10543518  0.18261908  0.00000000       0.005
   0.10844769  0.18783691  0.00000000       0.005
   0.11146004  0.18261918  0.00000000       0.005
   0.11447255  0.17740154  0.00000000       0.005
   0.11748490  0.17218381  0.00000000       0.005
   0.12049742  0.16696617  0.00000000       0.005
   0.12350977  0.16174825  0.00000000       0.005
   0.12652228  0.15653062  0.00000000       0.005
   0.12953463  0.15131289  0.00000000       0.005
   0.13254714  0.14609525  0.00000000       0.005
   0.13555949  0.14087752  0.00000000       0.005
   0.13857200  0.13565988  0.00000000       0.005
   0.14158435  0.13044215  0.00000000       0.005
   0.14459687  0.12522451  0.00000000       0.005
   0.14760922  0.12000678  0.00000000       0.005
   0.15062173  0.11478914  0.00000000       0.005
   0.15363408  0.10957141  0.00000000       0.005
   0.15664659  0.10435378  0.00000000       0.005
   0.15965894  0.09913604  0.00000000       0.005
   0.16267146  0.09391841  0.00000000       0.005
   0.15758797  0.09098346  0.00000000       0.005
   0.15250449  0.08804851  0.00000000       0.005
   0.14742101  0.08511356  0.00000000       0.005
   0.14233752  0.08217861  0.00000000       0.005
   0.13725404  0.07924366  0.00000000       0.005
   0.13217056  0.07630871  0.00000000       0.005
   0.12708707  0.07337376  0.00000000       0.005
   0.12200359  0.07043881  0.00000000       0.005
   0.11692011  0.06750386  0.00000000       0.005
   0.11183663  0.06456891  0.00000000       0.005
   0.10675314  0.06163395  0.00000000       0.005
   0.10166966  0.05869900  0.00000000       0.005
   0.09658618  0.05576405  0.00000000       0.005
   0.09150269  0.05282910  0.00000000       0.005
   0.08641921  0.04989415  0.00000000       0.005
   0.08133573  0.04695920  0.00000000       0.005
   0.07625224  0.04402425  0.00000000       0.005
   0.07116876  0.04108930  0.00000000       0.005
   0.06608528  0.03815435  0.00000000       0.005
   0.06100180  0.03521940  0.00000000       0.005
   0.05591831  0.03228445  0.00000000       0.005
   0.05083483  0.02934950  0.00000000       0.005
   0.04575135  0.02641455  0.00000000       0.005
   0.04066786  0.02347960  0.00000000       0.005
   0.03558438  0.02054465  0.00000000       0.005
   0.03050090  0.01760970  0.00000000       0.005
   0.02541741  0.01467475  0.00000000       0.005
   0.02033393  0.01173980  0.00000000       0.005
   0.01525045  0.00880485  0.00000000       0.005
   0.01016697  0.00586990  0.00000000       0.005
   0.00508348  0.00293495  0.00000000       0.005
   0.00000000  0.00000000  0.00000000       0.005
   0.00000000  0.00000000  0.00589458       0.005
   0.00000000  0.00000000  0.01178901       0.005
   0.00000000  0.00000000  0.01768359       0.005
   0.00000000  0.00000000  0.02357817       0.005
   0.00000000  0.00000000  0.02947260       0.005
   0.00000000  0.00000000  0.03536718       0.005
   0.00000000  0.00000000  0.04126176       0.005
   0.00000000  0.00000000  0.04715620       0.005
   0.00000000  0.00000000  0.05305077       0.005
   0.00000000  0.00000000  0.05894535       0.005
   0.00000000  0.00000000  0.06483979       0.005
   0.00000000  0.00000000  0.07073436       0.005
   0.00000000  0.00000000  0.07662894       0.005
   0.00000000  0.00000000  0.08252338       0.005
   0.00000000  0.00000000  0.08841796       0.005
   0.00000000  0.00000000  0.09431253       0.005
   0.00000000  0.00000000  0.10020697       0.005
   0.00000000  0.00000000  0.10610155       0.005
   0.00000000  0.00000000  0.11199612       0.005
   0.00000000  0.00000000  0.11789056       0.005
   0.00000000  0.00000000  0.12378514       0.005
   0.00000000  0.00000000  0.12967971       0.005
   0.00000000  0.00000000  0.13557415       0.005
   0.00000000  0.00000000  0.14146873       0.005
   0.00293101  0.00507667  0.14146873       0.005
   0.00586203  0.01015333  0.14146873       0.005
   0.00879304  0.01523000  0.14146873       0.005
   0.01172406  0.02030666  0.14146873       0.005
   0.01465507  0.02538333  0.14146873       0.005
   0.01758609  0.03045999  0.14146873       0.005
   0.02051710  0.03553666  0.14146873       0.005
   0.02344811  0.04061332  0.14146873       0.005
   0.02637913  0.04568999  0.14146873       0.005
   0.02931014  0.05076666  0.14146873       0.005
   0.03224116  0.05584332  0.14146873       0.005
   0.03517217  0.06091999  0.14146873       0.005
   0.03810319  0.06599665  0.14146873       0.005
   0.04103420  0.07107332  0.14146873       0.005
   0.04396521  0.07614998  0.14146873       0.005
   0.04689623  0.08122665  0.14146873       0.005
   0.04982724  0.08630332  0.14146873       0.005
   0.05275826  0.09137998  0.14146873       0.005
   0.05568927  0.09645665  0.14146873       0.005
   0.05862029  0.10153331  0.14146873       0.005
   0.06155130  0.10660998  0.14146873       0.005
   0.06448231  0.11168664  0.14146873       0.005
   0.06741333  0.11676331  0.14146873       0.005
   0.07034434  0.12183997  0.14146873       0.005
   0.07327536  0.12691664  0.14146873       0.005
   0.07620637  0.13199331  0.14146873       0.005
   0.07913739  0.13706997  0.14146873       0.005
   0.08206856  0.14214692  0.14146873       0.005
   0.08499958  0.14722358  0.14146873       0.005
   0.08793059  0.15230025  0.14146873       0.005
   0.09086161  0.15737692  0.14146873       0.005
   0.09379262  0.16245358  0.14146873       0.005
   0.09672363  0.16753025  0.14146873       0.005
   0.09965465  0.17260691  0.14146873       0.005
   0.10258566  0.17768358  0.14146873       0.005
   0.10551668  0.18276024  0.14146873       0.005
   0.10844769  0.18783691  0.14146873       0.005
   0.11146004  0.18261918  0.14146873       0.005
   0.11447255  0.17740154  0.14146873       0.005
   0.11748490  0.17218381  0.14146873       0.005
   0.12049742  0.16696617  0.14146873       0.005
   0.12350977  0.16174825  0.14146873       0.005
   0.12652228  0.15653062  0.14146873       0.005
   0.12953463  0.15131289  0.14146873       0.005
   0.13254714  0.14609525  0.14146873       0.005
   0.13555949  0.14087752  0.14146873       0.005
   0.13857200  0.13565988  0.14146873       0.005
   0.14158435  0.13044215  0.14146873       0.005
   0.14459687  0.12522451  0.14146873       0.005
   0.14760922  0.12000678  0.14146873       0.005
   0.15062173  0.11478914  0.14146873       0.005
   0.15363408  0.10957141  0.14146873       0.005
   0.15664659  0.10435378  0.14146873       0.005
   0.15965894  0.09913604  0.14146873       0.005
   0.16267146  0.09391841  0.14146873       0.005
   0.15788696  0.09115608  0.14146873       0.005
   0.15310247  0.08839375  0.14146873       0.005
   0.14831814  0.08563152  0.14146873       0.005
   0.14353365  0.08286919  0.14146873       0.005
   0.13874915  0.08010686  0.14146873       0.005
   0.13396466  0.07734453  0.14146873       0.005
   0.12918033  0.07458230  0.14146873       0.005
   0.12439584  0.07181997  0.14146873       0.005
   0.11961135  0.06905764  0.14146873       0.005
   0.11482685  0.06629531  0.14146873       0.005
   0.11004252  0.06353308  0.14146873       0.005
   0.10525803  0.06077075  0.14146873       0.005
   0.10047354  0.05800842  0.14146873       0.005
   0.09568904  0.05524609  0.14146873       0.005
   0.09090471  0.05248386  0.14146873       0.005
   0.08612022  0.04972153  0.14146873       0.005
   0.08133573  0.04695920  0.14146873       0.005
   0.07655124  0.04419688  0.14146873       0.005
   0.07176674  0.04143455  0.14146873       0.005
   0.06698241  0.03867231  0.14146873       0.005
   0.06219792  0.03590998  0.14146873       0.005
   0.05741343  0.03314766  0.14146873       0.005
   0.05262893  0.03038533  0.14146873       0.005
   0.04784460  0.02762309  0.14146873       0.005
   0.04306011  0.02486077  0.14146873       0.005
   0.03827562  0.02209844  0.14146873       0.005
   0.03349112  0.01933611  0.14146873       0.005
   0.02870679  0.01657388  0.14146873       0.005
   0.02392230  0.01381155  0.14146873       0.005
   0.01913781  0.01104922  0.14146873       0.005
   0.01435332  0.00828689  0.14146873       0.005
   0.00956899  0.00552466  0.14146873       0.005
   0.00478449  0.00276233  0.14146873       0.005
   0.00000000  0.00000000  0.14146873       0.005
 
 k-points in reciprocal lattice and weights: KPOINTS created by Atomic Simulation Env
   0.00000000  0.00000000  0.00000000       0.005
   0.01851900  0.01851900  0.00000000       0.005
   0.03703700  0.03703700  0.00000000       0.005
   0.05555600  0.05555600  0.00000000       0.005
   0.07407400  0.07407400  0.00000000       0.005
   0.09259300  0.09259300  0.00000000       0.005
   0.11111100  0.11111100  0.00000000       0.005
   0.12963000  0.12963000  0.00000000       0.005
   0.14814800  0.14814800  0.00000000       0.005
   0.16666700  0.16666700  0.00000000       0.005
   0.18518500  0.18518500  0.00000000       0.005
   0.20370400  0.20370400  0.00000000       0.005
   0.22222200  0.22222200  0.00000000       0.005
   0.24074100  0.24074100  0.00000000       0.005
   0.25925900  0.25925900  0.00000000       0.005
   0.27777800  0.27777800  0.00000000       0.005
   0.29629600  0.29629600  0.00000000       0.005
   0.31481500  0.31481500  0.00000000       0.005
   0.33333300  0.33333300  0.00000000       0.005
   0.35185200  0.35185200  0.00000000       0.005
   0.37037000  0.37037000  0.00000000       0.005
   0.38888900  0.38888900  0.00000000       0.005
   0.40740700  0.40740700  0.00000000       0.005
   0.42592600  0.42592600  0.00000000       0.005
   0.44444400  0.44444400  0.00000000       0.005
   0.46296300  0.46296300  0.00000000       0.005
   0.48148100  0.48148100  0.00000000       0.005
   0.50000000  0.50000000  0.00000000       0.005
   0.51851900  0.51851900  0.00000000       0.005
   0.53703700  0.53703700  0.00000000       0.005
   0.55555600  0.55555600  0.00000000       0.005
   0.57407400  0.57407400  0.00000000       0.005
   0.59259300  0.59259300  0.00000000       0.005
   0.61111100  0.61111100  0.00000000       0.005
   0.62963000  0.62963000  0.00000000       0.005
   0.64814800  0.64814800  0.00000000       0.005
   0.66666700  0.66666700  0.00000000       0.005
   0.68518500  0.62963000  0.00000000       0.005
   0.70370400  0.59259300  0.00000000       0.005
   0.72222200  0.55555600  0.00000000       0.005
   0.74074100  0.51851900  0.00000000       0.005
   0.75925900  0.48148100  0.00000000       0.005
   0.77777800  0.44444400  0.00000000       0.005
   0.79629600  0.40740700  0.00000000       0.005
   0.81481500  0.37037000  0.00000000       0.005
   0.83333300  0.33333300  0.00000000       0.005
   0.85185200  0.29629600  0.00000000       0.005
   0.87037000  0.25925900  0.00000000       0.005
   0.88888900  0.22222200  0.00000000       0.005
   0.90740700  0.18518500  0.00000000       0.005
   0.92592600  0.14814800  0.00000000       0.005
   0.94444400  0.11111100  0.00000000       0.005
   0.96296300  0.07407400  0.00000000       0.005
   0.98148100  0.03703700  0.00000000       0.005
   1.00000000  0.00000000  0.00000000       0.005
   0.96875000  0.00000000  0.00000000       0.005
   0.93750000  0.00000000  0.00000000       0.005
   0.90625000  0.00000000  0.00000000       0.005
   0.87500000  0.00000000  0.00000000       0.005
   0.84375000  0.00000000  0.00000000       0.005
   0.81250000  0.00000000  0.00000000       0.005
   0.78125000  0.00000000  0.00000000       0.005
   0.75000000  0.00000000  0.00000000       0.005
   0.71875000  0.00000000  0.00000000       0.005
   0.68750000  0.00000000  0.00000000       0.005
   0.65625000  0.00000000  0.00000000       0.005
   0.62500000  0.00000000  0.00000000       0.005
   0.59375000  0.00000000  0.00000000       0.005
   0.56250000  0.00000000  0.00000000       0.005
   0.53125000  0.00000000  0.00000000       0.005
   0.50000000  0.00000000  0.00000000       0.005
   0.46875000  0.00000000  0.00000000       0.005
   0.43750000  0.00000000  0.00000000       0.005
   0.40625000  0.00000000  0.00000000       0.005
   0.37500000  0.00000000  0.00000000       0.005
   0.34375000  0.00000000  0.00000000       0.005
   0.31250000  0.00000000  0.00000000       0.005
   0.28125000  0.00000000  0.00000000       0.005
   0.25000000  0.00000000  0.00000000       0.005
   0.21875000  0.00000000  0.00000000       0.005
   0.18750000  0.00000000  0.00000000       0.005
   0.15625000  0.00000000  0.00000000       0.005
   0.12500000  0.00000000  0.00000000       0.005
   0.09375000  0.00000000  0.00000000       0.005
   0.06250000  0.00000000  0.00000000       0.005
   0.03125000  0.00000000  0.00000000       0.005
   0.00000000  0.00000000  0.00000000       0.005
   0.00000000  0.00000000  0.04166700       0.005
   0.00000000  0.00000000  0.08333300       0.005
   0.00000000  0.00000000  0.12500000       0.005
   0.00000000  0.00000000  0.16666700       0.005
   0.00000000  0.00000000  0.20833300       0.005
   0.00000000  0.00000000  0.25000000       0.005
   0.00000000  0.00000000  0.29166700       0.005
   0.00000000  0.00000000  0.33333300       0.005
   0.00000000  0.00000000  0.37500000       0.005
   0.00000000  0.00000000  0.41666700       0.005
   0.00000000  0.00000000  0.45833300       0.005
   0.00000000  0.00000000  0.50000000       0.005
   0.00000000  0.00000000  0.54166700       0.005
   0.00000000  0.00000000  0.58333300       0.005
   0.00000000  0.00000000  0.62500000       0.005
   0.00000000  0.00000000  0.66666700       0.005
   0.00000000  0.00000000  0.70833300       0.005
   0.00000000  0.00000000  0.75000000       0.005
   0.00000000  0.00000000  0.79166700       0.005
   0.00000000  0.00000000  0.83333300       0.005
   0.00000000  0.00000000  0.87500000       0.005
   0.00000000  0.00000000  0.91666700       0.005
   0.00000000  0.00000000  0.95833300       0.005
   0.00000000  0.00000000  1.00000000       0.005
   0.01801800  0.01801800  1.00000000       0.005
   0.03603600  0.03603600  1.00000000       0.005
   0.05405400  0.05405400  1.00000000       0.005
   0.07207200  0.07207200  1.00000000       0.005
   0.09009000  0.09009000  1.00000000       0.005
   0.10810800  0.10810800  1.00000000       0.005
   0.12612600  0.12612600  1.00000000       0.005
   0.14414400  0.14414400  1.00000000       0.005
   0.16216200  0.16216200  1.00000000       0.005
   0.18018000  0.18018000  1.00000000       0.005
   0.19819800  0.19819800  1.00000000       0.005
   0.21621600  0.21621600  1.00000000       0.005
   0.23423400  0.23423400  1.00000000       0.005
   0.25225200  0.25225200  1.00000000       0.005
   0.27027000  0.27027000  1.00000000       0.005
   0.28828800  0.28828800  1.00000000       0.005
   0.30630600  0.30630600  1.00000000       0.005
   0.32432400  0.32432400  1.00000000       0.005
   0.34234200  0.34234200  1.00000000       0.005
   0.36036000  0.36036000  1.00000000       0.005
   0.37837800  0.37837800  1.00000000       0.005
   0.39639600  0.39639600  1.00000000       0.005
   0.41441400  0.41441400  1.00000000       0.005
   0.43243200  0.43243200  1.00000000       0.005
   0.45045000  0.45045000  1.00000000       0.005
   0.46846800  0.46846800  1.00000000       0.005
   0.48648600  0.48648600  1.00000000       0.005
   0.50450500  0.50450500  1.00000000       0.005
   0.52252300  0.52252300  1.00000000       0.005
   0.54054100  0.54054100  1.00000000       0.005
   0.55855900  0.55855900  1.00000000       0.005
   0.57657700  0.57657700  1.00000000       0.005
   0.59459500  0.59459500  1.00000000       0.005
   0.61261300  0.61261300  1.00000000       0.005
   0.63063100  0.63063100  1.00000000       0.005
   0.64864900  0.64864900  1.00000000       0.005
   0.66666700  0.66666700  1.00000000       0.005
   0.68518500  0.62963000  1.00000000       0.005
   0.70370400  0.59259300  1.00000000       0.005
   0.72222200  0.55555600  1.00000000       0.005
   0.74074100  0.51851900  1.00000000       0.005
   0.75925900  0.48148100  1.00000000       0.005
   0.77777800  0.44444400  1.00000000       0.005
   0.79629600  0.40740700  1.00000000       0.005
   0.81481500  0.37037000  1.00000000       0.005
   0.83333300  0.33333300  1.00000000       0.005
   0.85185200  0.29629600  1.00000000       0.005
   0.87037000  0.25925900  1.00000000       0.005
   0.88888900  0.22222200  1.00000000       0.005
   0.90740700  0.18518500  1.00000000       0.005
   0.92592600  0.14814800  1.00000000       0.005
   0.94444400  0.11111100  1.00000000       0.005
   0.96296300  0.07407400  1.00000000       0.005
   0.98148100  0.03703700  1.00000000       0.005
   1.00000000  0.00000000  1.00000000       0.005
   0.97058800  0.00000000  1.00000000       0.005
   0.94117600  0.00000000  1.00000000       0.005
   0.91176500  0.00000000  1.00000000       0.005
   0.88235300  0.00000000  1.00000000       0.005
   0.85294100  0.00000000  1.00000000       0.005
   0.82352900  0.00000000  1.00000000       0.005
   0.79411800  0.00000000  1.00000000       0.005
   0.76470600  0.00000000  1.00000000       0.005
   0.73529400  0.00000000  1.00000000       0.005
   0.70588200  0.00000000  1.00000000       0.005
   0.67647100  0.00000000  1.00000000       0.005
   0.64705900  0.00000000  1.00000000       0.005
   0.61764700  0.00000000  1.00000000       0.005
   0.58823500  0.00000000  1.00000000       0.005
   0.55882400  0.00000000  1.00000000       0.005
   0.52941200  0.00000000  1.00000000       0.005
   0.50000000  0.00000000  1.00000000       0.005
   0.47058800  0.00000000  1.00000000       0.005
   0.44117600  0.00000000  1.00000000       0.005
   0.41176500  0.00000000  1.00000000       0.005
   0.38235300  0.00000000  1.00000000       0.005
   0.35294100  0.00000000  1.00000000       0.005
   0.32352900  0.00000000  1.00000000       0.005
   0.29411800  0.00000000  1.00000000       0.005
   0.26470600  0.00000000  1.00000000       0.005
   0.23529400  0.00000000  1.00000000       0.005
   0.20588200  0.00000000  1.00000000       0.005
   0.17647100  0.00000000  1.00000000       0.005
   0.14705900  0.00000000  1.00000000       0.005
   0.11764700  0.00000000  1.00000000       0.005
   0.08823500  0.00000000  1.00000000       0.005
   0.05882400  0.00000000  1.00000000       0.005
   0.02941200  0.00000000  1.00000000       0.005
   0.00000000  0.00000000  1.00000000       0.005
 
 position of ions in fractional coordinates (direct lattice) 
   0.00000000  0.00000000  0.00000000
   0.00000000  0.00000000  0.50000000
   0.00000000  0.50000000  0.00000000
   0.00000000  0.50000000  0.50000000
   0.50000000  0.00000000  0.00000000
   0.50000000  0.00000000  0.50000000
   0.50000000  0.50000000  0.00000000
   0.50000000  0.50000000  0.50000000
   0.16666650  0.33333350  0.25000000
   0.33333350  0.16666650  0.25000000
   0.16666650  0.33333350  0.75000000
   0.33333350  0.16666650  0.75000000
   0.16666650  0.83333350  0.25000000
   0.33333350  0.66666650  0.25000000
   0.16666650  0.83333350  0.75000000
   0.33333350  0.66666650  0.75000000
   0.66666650  0.33333350  0.25000000
   0.83333350  0.16666650  0.25000000
   0.66666650  0.33333350  0.75000000
   0.83333350  0.16666650  0.75000000
   0.66666650  0.83333350  0.25000000
   0.83333350  0.66666650  0.25000000
   0.66666650  0.83333350  0.75000000
   0.83333350  0.66666650  0.75000000
 
 position of ions in cartesian coordinates  (Angst):
   0.00000000  0.00000000  0.00000000
   0.00000000  0.00000000  3.53435000
  -1.53684000  2.66188500  0.00000000
  -1.53684000  2.66188500  3.53435000
   3.07368000  0.00000000  0.00000000
   3.07368000  0.00000000  3.53435000
   1.53684000  2.66188500  0.00000000
   1.53684000  2.66188500  3.53435000
  -0.00000154  1.77459089  1.76717500
   1.53684154  0.88729411  1.76717500
  -0.00000154  1.77459089  5.30152500
   1.53684154  0.88729411  5.30152500
  -1.53684154  4.43647589  1.76717500
   0.00000154  3.54917911  1.76717500
  -1.53684154  4.43647589  5.30152500
   0.00000154  3.54917911  5.30152500
   3.07367846  1.77459089  1.76717500
   4.61052154  0.88729411  1.76717500
   3.07367846  1.77459089  5.30152500
   4.61052154  0.88729411  5.30152500
   1.53683846  4.43647589  1.76717500
   3.07368154  3.54917911  1.76717500
   1.53683846  4.43647589  5.30152500
   3.07368154  3.54917911  5.30152500
 


--------------------------------------------------------------------------------------------------------


 k-point  1 :   0.0000 0.0000 0.0000  plane waves:    5629
 k-point  2 :   0.0185 0.0185 0.0000  plane waves:    5629
 k-point  3 :   0.0370 0.0370 0.0000  plane waves:    5645
 k-point  4 :   0.0556 0.0556 0.0000  plane waves:    5659
 k-point  5 :   0.0741 0.0741 0.0000  plane waves:    5665
 k-point  6 :   0.0926 0.0926 0.0000  plane waves:    5667
 k-point  7 :   0.1111 0.1111 0.0000  plane waves:    5679
 k-point  8 :   0.1296 0.1296 0.0000  plane waves:    5693
 k-point  9 :   0.1481 0.1481 0.0000  plane waves:    5707
 k-point 10 :   0.1667 0.1667 0.0000  plane waves:    5707
 k-point 11 :   0.1852 0.1852 0.0000  plane waves:    5695
 k-point 12 :   0.2037 0.2037 0.0000  plane waves:    5691
 k-point 13 :   0.2222 0.2222 0.0000  plane waves:    5691
 k-point 14 :   0.2407 0.2407 0.0000  plane waves:    5691
 k-point 15 :   0.2593 0.2593 0.0000  plane waves:    5699
 k-point 16 :   0.2778 0.2778 0.0000  plane waves:    5705
 k-point 17 :   0.2963 0.2963 0.0000  plane waves:    5705
 k-point 18 :   0.3148 0.3148 0.0000  plane waves:    5713
 k-point 19 :   0.3333 0.3333 0.0000  plane waves:    5703
 k-point 20 :   0.3519 0.3519 0.0000  plane waves:    5713
 k-point 21 :   0.3704 0.3704 0.0000  plane waves:    5711
 k-point 22 :   0.3889 0.3889 0.0000  plane waves:    5703
 k-point 23 :   0.4074 0.4074 0.0000  plane waves:    5703
 k-point 24 :   0.4259 0.4259 0.0000  plane waves:    5697
 k-point 25 :   0.4444 0.4444 0.0000  plane waves:    5715
 k-point 26 :   0.4630 0.4630 0.0000  plane waves:    5706
 k-point 27 :   0.4815 0.4815 0.0000  plane waves:    5722
 k-point 28 :   0.5000 0.5000 0.0000  plane waves:    5712
 k-point 29 :   0.5185 0.5185 0.0000  plane waves:    5722
 k-point 30 :   0.5370 0.5370 0.0000  plane waves:    5706
 k-point 31 :   0.5556 0.5556 0.0000  plane waves:    5715
 k-point 32 :   0.5741 0.5741 0.0000  plane waves:    5697
 k-point 33 :   0.5926 0.5926 0.0000  plane waves:    5703
 k-point 34 :   0.6111 0.6111 0.0000  plane waves:    5703
 k-point 35 :   0.6296 0.6296 0.0000  plane waves:    5711
 k-point 36 :   0.6481 0.6481 0.0000  plane waves:    5713
 k-point 37 :   0.6667 0.6667 0.0000  plane waves:    5703
 k-point 38 :   0.6852 0.6296 0.0000  plane waves:    5713
 k-point 39 :   0.7037 0.5926 0.0000  plane waves:    5705
 k-point 40 :   0.7222 0.5556 0.0000  plane waves:    5705
 k-point 41 :   0.7407 0.5185 0.0000  plane waves:    5699
 k-point 42 :   0.7593 0.4815 0.0000  plane waves:    5691
 k-point 43 :   0.7778 0.4444 0.0000  plane waves:    5691
 k-point 44 :   0.7963 0.4074 0.0000  plane waves:    5691
 k-point 45 :   0.8148 0.3704 0.0000  plane waves:    5695
 k-point 46 :   0.8333 0.3333 0.0000  plane waves:    5707
 k-point 47 :   0.8519 0.2963 0.0000  plane waves:    5707
 k-point 48 :   0.8704 0.2593 0.0000  plane waves:    5693
 k-point 49 :   0.8889 0.2222 0.0000  plane waves:    5679
 k-point 50 :   0.9074 0.1852 0.0000  plane waves:    5667
 k-point 51 :   0.9259 0.1481 0.0000  plane waves:    5665
 k-point 52 :   0.9444 0.1111 0.0000  plane waves:    5659
 k-point 53 :   0.9630 0.0741 0.0000  plane waves:    5645
 k-point 54 :   0.9815 0.0370 0.0000  plane waves:    5629
 k-point 55 :   1.0000 0.0000 0.0000  plane waves:    5629
 k-point 56 :   0.9688 0.0000 0.0000  plane waves:    5629
 k-point 57 :   0.9375 0.0000 0.0000  plane waves:    5645
 k-point 58 :   0.9062 0.0000 0.0000  plane waves:    5659
 k-point 59 :   0.8750 0.0000 0.0000  plane waves:    5659
 k-point 60 :   0.8438 0.0000 0.0000  plane waves:    5669
 k-point 61 :   0.8125 0.0000 0.0000  plane waves:    5677
 k-point 62 :   0.7812 0.0000 0.0000  plane waves:    5691
 k-point 63 :   0.7500 0.0000 0.0000  plane waves:    5707
 k-point 64 :   0.7188 0.0000 0.0000  plane waves:    5705
 k-point 65 :   0.6875 0.0000 0.0000  plane waves:    5697
 k-point 66 :   0.6562 0.0000 0.0000  plane waves:    5701
 k-point 67 :   0.6250 0.0000 0.0000  plane waves:    5717
 k-point 68 :   0.5938 0.0000 0.0000  plane waves:    5730
 k-point 69 :   0.5625 0.0000 0.0000  plane waves:    5732
 k-point 70 :   0.5312 0.0000 0.0000  plane waves:    5730
 k-point 71 :   0.5000 0.0000 0.0000  plane waves:    5712
 k-point 72 :   0.4688 0.0000 0.0000  plane waves:    5730
 k-point 73 :   0.4375 0.0000 0.0000  plane waves:    5732
 k-point 74 :   0.4062 0.0000 0.0000  plane waves:    5730
 k-point 75 :   0.3750 0.0000 0.0000  plane waves:    5717
 k-point 76 :   0.3438 0.0000 0.0000  plane waves:    5701
 k-point 77 :   0.3125 0.0000 0.0000  plane waves:    5697
 k-point 78 :   0.2812 0.0000 0.0000  plane waves:    5705
 k-point 79 :   0.2500 0.0000 0.0000  plane waves:    5707
 k-point 80 :   0.2188 0.0000 0.0000  plane waves:    5691
 k-point 81 :   0.1875 0.0000 0.0000  plane waves:    5677
 k-point 82 :   0.1562 0.0000 0.0000  plane waves:    5669
 k-point 83 :   0.1250 0.0000 0.0000  plane waves:    5659
 k-point 84 :   0.0938 0.0000 0.0000  plane waves:    5659
 k-point 85 :   0.0625 0.0000 0.0000  plane waves:    5645
 k-point 86 :   0.0312 0.0000 0.0000  plane waves:    5629
 k-point 87 :   0.0000 0.0000 0.0000  plane waves:    5629
 k-point 88 :   0.0000 0.0000 0.0417  plane waves:    5635
 k-point 89 :   0.0000 0.0000 0.0833  plane waves:    5629
 k-point 90 :   0.0000 0.0000 0.1250  plane waves:    5659
 k-point 91 :   0.0000 0.0000 0.1667  plane waves:    5689
 k-point 92 :   0.0000 0.0000 0.2083  plane waves:    5701
 k-point 93 :   0.0000 0.0000 0.2500  plane waves:    5690
 k-point 94 :   0.0000 0.0000 0.2917  plane waves:    5702
 k-point 95 :   0.0000 0.0000 0.3333  plane waves:    5720
 k-point 96 :   0.0000 0.0000 0.3750  plane waves:    5708
 k-point 97 :   0.0000 0.0000 0.4167  plane waves:    5702
 k-point 98 :   0.0000 0.0000 0.4583  plane waves:    5684
 k-point 99 :   0.0000 0.0000 0.5000  plane waves:    5702
 k-point ** :   0.0000 0.0000 0.5417  plane waves:    5684
 k-point ** :   0.0000 0.0000 0.5833  plane waves:    5702
 k-point ** :   0.0000 0.0000 0.6250  plane waves:    5708
 k-point ** :   0.0000 0.0000 0.6667  plane waves:    5720
 k-point ** :   0.0000 0.0000 0.7083  plane waves:    5702
 k-point ** :   0.0000 0.0000 0.7500  plane waves:    5690
 k-point ** :   0.0000 0.0000 0.7917  plane waves:    5701
 k-point ** :   0.0000 0.0000 0.8333  plane waves:    5689
 k-point ** :   0.0000 0.0000 0.8750  plane waves:    5659
 k-point ** :   0.0000 0.0000 0.9167  plane waves:    5629
 k-point ** :   0.0000 0.0000 0.9583  plane waves:    5635
 k-point ** :   0.0000 0.0000 1.0000  plane waves:    5629
 k-point ** :   0.0180 0.0180 1.0000  plane waves:    5629
 k-point ** :   0.0360 0.0360 1.0000  plane waves:    5645
 k-point ** :   0.0541 0.0541 1.0000  plane waves:    5659
 k-point ** :   0.0721 0.0721 1.0000  plane waves:    5667
 k-point ** :   0.0901 0.0901 1.0000  plane waves:    5663
 k-point ** :   0.1081 0.1081 1.0000  plane waves:    5675
 k-point ** :   0.1261 0.1261 1.0000  plane waves:    5689
 k-point ** :   0.1441 0.1441 1.0000  plane waves:    5707
 k-point ** :   0.1622 0.1622 1.0000  plane waves:    5703
 k-point ** :   0.1802 0.1802 1.0000  plane waves:    5695
 k-point ** :   0.1982 0.1982 1.0000  plane waves:    5689
 k-point ** :   0.2162 0.2162 1.0000  plane waves:    5687
 k-point ** :   0.2342 0.2342 1.0000  plane waves:    5683
 k-point ** :   0.2523 0.2523 1.0000  plane waves:    5699
 k-point ** :   0.2703 0.2703 1.0000  plane waves:    5711
 k-point ** :   0.2883 0.2883 1.0000  plane waves:    5709
 k-point ** :   0.3063 0.3063 1.0000  plane waves:    5717
 k-point ** :   0.3243 0.3243 1.0000  plane waves:    5695
 k-point ** :   0.3423 0.3423 1.0000  plane waves:    5697
 k-point ** :   0.3604 0.3604 1.0000  plane waves:    5717
 k-point ** :   0.3784 0.3784 1.0000  plane waves:    5715
 k-point ** :   0.3964 0.3964 1.0000  plane waves:    5697
 k-point ** :   0.4144 0.4144 1.0000  plane waves:    5701
 k-point ** :   0.4324 0.4324 1.0000  plane waves:    5703
 k-point ** :   0.4505 0.4505 1.0000  plane waves:    5717
 k-point ** :   0.4685 0.4685 1.0000  plane waves:    5710
 k-point ** :   0.4865 0.4865 1.0000  plane waves:    5724
 k-point ** :   0.5045 0.5045 1.0000  plane waves:    5712
 k-point ** :   0.5225 0.5225 1.0000  plane waves:    5724
 k-point ** :   0.5405 0.5405 1.0000  plane waves:    5710
 k-point ** :   0.5586 0.5586 1.0000  plane waves:    5711
 k-point ** :   0.5766 0.5766 1.0000  plane waves:    5697
 k-point ** :   0.5946 0.5946 1.0000  plane waves:    5703
 k-point ** :   0.6126 0.6126 1.0000  plane waves:    5707
 k-point ** :   0.6306 0.6306 1.0000  plane waves:    5707
 k-point ** :   0.6486 0.6486 1.0000  plane waves:    5709
 k-point ** :   0.6667 0.6667 1.0000  plane waves:    5703
 k-point ** :   0.6852 0.6296 1.0000  plane waves:    5713
 k-point ** :   0.7037 0.5926 1.0000  plane waves:    5705
 k-point ** :   0.7222 0.5556 1.0000  plane waves:    5705
 k-point ** :   0.7407 0.5185 1.0000  plane waves:    5699
 k-point ** :   0.7593 0.4815 1.0000  plane waves:    5691
 k-point ** :   0.7778 0.4444 1.0000  plane waves:    5691
 k-point ** :   0.7963 0.4074 1.0000  plane waves:    5691
 k-point ** :   0.8148 0.3704 1.0000  plane waves:    5695
 k-point ** :   0.8333 0.3333 1.0000  plane waves:    5707
 k-point ** :   0.8519 0.2963 1.0000  plane waves:    5707
 k-point ** :   0.8704 0.2593 1.0000  plane waves:    5693
 k-point ** :   0.8889 0.2222 1.0000  plane waves:    5679
 k-point ** :   0.9074 0.1852 1.0000  plane waves:    5667
 k-point ** :   0.9259 0.1481 1.0000  plane waves:    5665
 k-point ** :   0.9444 0.1111 1.0000  plane waves:    5659
 k-point ** :   0.9630 0.0741 1.0000  plane waves:    5645
 k-point ** :   0.9815 0.0370 1.0000  plane waves:    5629
 k-point ** :   1.0000 0.0000 1.0000  plane waves:    5629
 k-point ** :   0.9706 0.0000 1.0000  plane waves:    5629
 k-point ** :   0.9412 0.0000 1.0000  plane waves:    5637
 k-point ** :   0.9118 0.0000 1.0000  plane waves:    5659
 k-point ** :   0.8824 0.0000 1.0000  plane waves:    5659
 k-point ** :   0.8529 0.0000 1.0000  plane waves:    5669
 k-point ** :   0.8235 0.0000 1.0000  plane waves:    5681
 k-point ** :   0.7941 0.0000 1.0000  plane waves:    5691
 k-point ** :   0.7647 0.0000 1.0000  plane waves:    5707
 k-point ** :   0.7353 0.0000 1.0000  plane waves:    5701
 k-point ** :   0.7059 0.0000 1.0000  plane waves:    5701
 k-point ** :   0.6765 0.0000 1.0000  plane waves:    5693
 k-point ** :   0.6471 0.0000 1.0000  plane waves:    5701
 k-point ** :   0.6176 0.0000 1.0000  plane waves:    5717
 k-point ** :   0.5882 0.0000 1.0000  plane waves:    5730
 k-point ** :   0.5588 0.0000 1.0000  plane waves:    5732
 k-point ** :   0.5294 0.0000 1.0000  plane waves:    5730
 k-point ** :   0.5000 0.0000 1.0000  plane waves:    5712
 k-point ** :   0.4706 0.0000 1.0000  plane waves:    5730
 k-point ** :   0.4412 0.0000 1.0000  plane waves:    5732
 k-point ** :   0.4118 0.0000 1.0000  plane waves:    5730
 k-point ** :   0.3824 0.0000 1.0000  plane waves:    5717
 k-point ** :   0.3529 0.0000 1.0000  plane waves:    5701
 k-point ** :   0.3235 0.0000 1.0000  plane waves:    5693
 k-point ** :   0.2941 0.0000 1.0000  plane waves:    5701
 k-point ** :   0.2647 0.0000 1.0000  plane waves:    5701
 k-point ** :   0.2353 0.0000 1.0000  plane waves:    5707
 k-point ** :   0.2059 0.0000 1.0000  plane waves:    5691
 k-point ** :   0.1765 0.0000 1.0000  plane waves:    5681
 k-point ** :   0.1471 0.0000 1.0000  plane waves:    5669
 k-point ** :   0.1176 0.0000 1.0000  plane waves:    5659
 k-point ** :   0.0882 0.0000 1.0000  plane waves:    5659
 k-point ** :   0.0588 0.0000 1.0000  plane waves:    5637
 k-point ** :   0.0294 0.0000 1.0000  plane waves:    5629
 k-point ** :   0.0000 0.0000 1.0000  plane waves:    5629

 maximum and minimum number of plane-waves per node :       741      669

 maximum number of plane-waves:      5732
 maximum index in each direction: 
   IXMAX=   11   IYMAX=   11   IZMAX=   12
   IXMIN=  -12   IYMIN=  -11   IZMIN=  -13


 parallel 3D FFT for wavefunctions:
    minimum data exchange during FFTs selected (reduces bandwidth)
 parallel 3D FFT for charge:
    minimum data exchange during FFTs selected (reduces bandwidth)


 total amount of memory used by VASP MPI-rank0   184987. kBytes
=======================================================================

   base      :      30000. kBytes
   nonl-proj :      30228. kBytes
   fftplans  :       5459. kBytes
   grid      :       2540. kBytes
   one-center:         24. kBytes
   wavefun   :     116736. kBytes
 
     INWAV:  cpu time    5.7553: real time    5.7567
 initial charge density was supplied:
 number of electron     191.9999982 magnetization 
 keeping initial charge density in first step


--------------------------------------------------------------------------------------------------------


 Maximum index for augmentation-charges         2927 (set IRDMAX)


--------------------------------------------------------------------------------------------------------


 First call to EWALD:  gamma=   0.289
 Maximum number of real-space cells 3x 3x 2
 Maximum number of reciprocal cells 3x 3x 3

    FEWALD:  cpu time    0.0021: real time    0.0021


--------------------------------------- Iteration      1(   1)  ---------------------------------------


    POTLOK:  cpu time    0.0264: real time    0.0278
    SETDIJ:  cpu time    0.0307: real time    0.0307
     EDDAV:  cpu time   36.8585: real time   36.8754
       DOS:  cpu time    0.0115: real time    0.0115
    --------------------------------------------
      LOOP:  cpu time   36.9272: real time   36.9455

 eigenvalue-minimisations  : 34088
 total energy-change (2. order) : 0.9439985E+02  (-0.9005906E-06)
 number of electron     191.9999982 magnetization 
 augmentation part      191.9999982 magnetization 

 Free energy of the ion-electron system (eV)
  ---------------------------------------------------
  alpha Z        PSCENC =      1370.82494299
  Ewald energy   TEWEN  =    -14273.25128789
  -Hartree energ DENC   =     -5225.84997437
  -exchange      EXHF   =         0.00000000
  -V(xc)+E(xc)   XCENC  =       660.16205757
  PAW double counting   =     16240.61624752   -19170.70422594
  entropy T*S    EENTRO =        -0.00000000
  eigenvalues    EBANDS =     -4896.31517152
  atomic energy  EATOM  =     25388.91726102
  Solvation  Ediel_sol  =         0.00000000
  ---------------------------------------------------
  free energy    TOTEN  =        94.39984939 eV

  energy without entropy =       94.39984939  energy(sigma->0) =       94.39984939


--------------------------------------------------------------------------------------------------------




--------------------------------------- Iteration      1(   2)  ---------------------------------------


     EDDAV:  cpu time   26.7046: real time   26.7139
       DOS:  cpu time    0.0114: real time    0.0114
    --------------------------------------------
      LOOP:  cpu time   26.7161: real time   26.7253

 eigenvalue-minimisations  : 20088
 total energy-change (2. order) :-0.6600567E-06  (-0.6600943E-06)
 number of electron     191.9999982 magnetization 
 augmentation part      191.9999982 magnetization 

 Free energy of the ion-electron system (eV)
  ---------------------------------------------------
  alpha Z        PSCENC =      1370.82494299
  Ewald energy   TEWEN  =    -14273.25128789
  -Hartree energ DENC   =     -5225.84997437
  -exchange      EXHF   =         0.00000000
  -V(xc)+E(xc)   XCENC  =       660.16205757
  PAW double counting   =     16240.61624752   -19170.70422594
  entropy T*S    EENTRO =        -0.00000000
  eigenvalues    EBANDS =     -4896.31517218
  atomic energy  EATOM  =     25388.91726102
  Solvation  Ediel_sol  =         0.00000000
  ---------------------------------------------------
  free energy    TOTEN  =        94.39984873 eV

  energy without entropy =       94.39984873  energy(sigma->0) =       94.39984873


--------------------------------------------------------------------------------------------------------




--------------------------------------- Iteration      1(   3)  ---------------------------------------


     EDDAV:  cpu time   26.5396: real time   26.5469
       DOS:  cpu time    0.0114: real time    0.0114
    --------------------------------------------
      LOOP:  cpu time   26.5511: real time   26.5583

 eigenvalue-minimisations  : 19848
 total energy-change (2. order) :-0.6940063E-06  (-0.6940380E-06)
 number of electron     191.9999982 magnetization 
 augmentation part      191.9999982 magnetization 

 Free energy of the ion-electron system (eV)
  ---------------------------------------------------
  alpha Z        PSCENC =      1370.82494299
  Ewald energy   TEWEN  =    -14273.25128789
  -Hartree energ DENC   =     -5225.84997437
  -exchange      EXHF   =         0.00000000
  -V(xc)+E(xc)   XCENC  =       660.16205757
  PAW double counting   =     16240.61624752   -19170.70422594
  entropy T*S    EENTRO =        -0.00000000
  eigenvalues    EBANDS =     -4896.31517287
  atomic energy  EATOM  =     25388.91726102
  Solvation  Ediel_sol  =         0.00000000
  ---------------------------------------------------
  free energy    TOTEN  =        94.39984803 eV

  energy without entropy =       94.39984803  energy(sigma->0) =       94.39984803


--------------------------------------------------------------------------------------------------------




--------------------------------------- Iteration      1(   4)  ---------------------------------------


     EDDAV:  cpu time   26.5037: real time   26.5103
       DOS:  cpu time    0.0114: real time    0.0114
    --------------------------------------------
      LOOP:  cpu time   26.5151: real time   26.5217

 eigenvalue-minimisations  : 19856
 total energy-change (2. order) :-0.6702030E-06  (-0.6702458E-06)
 number of electron     191.9999982 magnetization 
 augmentation part      191.9999982 magnetization 

 Free energy of the ion-electron system (eV)
  ---------------------------------------------------
  alpha Z        PSCENC =      1370.82494299
  Ewald energy   TEWEN  =    -14273.25128789
  -Hartree energ DENC   =     -5225.84997437
  -exchange      EXHF   =         0.00000000
  -V(xc)+E(xc)   XCENC  =       660.16205757
  PAW double counting   =     16240.61624752   -19170.70422594
  entropy T*S    EENTRO =        -0.00000000
  eigenvalues    EBANDS =     -4896.31517354
  atomic energy  EATOM  =     25388.91726102
  Solvation  Ediel_sol  =         0.00000000
  ---------------------------------------------------
  free energy    TOTEN  =        94.39984736 eV

  energy without entropy =       94.39984736  energy(sigma->0) =       94.39984736


--------------------------------------------------------------------------------------------------------




--------------------------------------- Iteration      1(   5)  ---------------------------------------


     EDDAV:  cpu time   26.5306: real time   26.5375
       DOS:  cpu time    0.0115: real time    0.0115
    --------------------------------------------
      LOOP:  cpu time   26.5421: real time   26.5490

 eigenvalue-minimisations  : 19848
 total energy-change (2. order) :-0.8645111E-06  (-0.8644465E-06)
 number of electron     191.9999982 magnetization 
 augmentation part      191.9999982 magnetization 

 Free energy of the ion-electron system (eV)
  ---------------------------------------------------
  alpha Z        PSCENC =      1370.82494299
  Ewald energy   TEWEN  =    -14273.25128789
  -Hartree energ DENC   =     -5225.84997437
  -exchange      EXHF   =         0.00000000
  -V(xc)+E(xc)   XCENC  =       660.16205757
  PAW double counting   =     16240.61624752   -19170.70422594
  entropy T*S    EENTRO =        -0.00000000
  eigenvalues    EBANDS =     -4896.31517440
  atomic energy  EATOM  =     25388.91726102
  Solvation  Ediel_sol  =         0.00000000
  ---------------------------------------------------
  free energy    TOTEN  =        94.39984650 eV

  energy without entropy =       94.39984650  energy(sigma->0) =       94.39984650


--------------------------------------------------------------------------------------------------------




--------------------------------------- Iteration      1(   6)  ---------------------------------------


     EDDAV:  cpu time   26.4825: real time   26.4892
       DOS:  cpu time    0.0114: real time    0.0114
    --------------------------------------------
      LOOP:  cpu time   26.4939: real time   26.5006

 eigenvalue-minimisations  : 19840
 total energy-change (2. order) :-0.1015964E-05  (-0.1015972E-05)
 number of electron     191.9999982 magnetization 
 augmentation part      191.9999982 magnetization 

 Free energy of the ion-electron system (eV)
  ---------------------------------------------------
  alpha Z        PSCENC =      1370.82494299
  Ewald energy   TEWEN  =    -14273.25128789
  -Hartree energ DENC   =     -5225.84997437
  -exchange      EXHF   =         0.00000000
  -V(xc)+E(xc)   XCENC  =       660.16205757
  PAW double counting   =     16240.61624752   -19170.70422594
  entropy T*S    EENTRO =        -0.00000000
  eigenvalues    EBANDS =     -4896.31517542
  atomic energy  EATOM  =     25388.91726102
  Solvation  Ediel_sol  =         0.00000000
  ---------------------------------------------------
  free energy    TOTEN  =        94.39984548 eV

  energy without entropy =       94.39984548  energy(sigma->0) =       94.39984548


--------------------------------------------------------------------------------------------------------




--------------------------------------- Iteration      1(   7)  ---------------------------------------


     EDDAV:  cpu time   26.4821: real time   26.4888
       DOS:  cpu time    0.0114: real time    0.0114
    --------------------------------------------
      LOOP:  cpu time   26.4935: real time   26.5002

 eigenvalue-minimisations  : 19816
 total energy-change (2. order) :-0.8444222E-06  (-0.8444189E-06)
 number of electron     191.9999982 magnetization 
 augmentation part      191.9999982 magnetization 

 Free energy of the ion-electron system (eV)
  ---------------------------------------------------
  alpha Z        PSCENC =      1370.82494299
  Ewald energy   TEWEN  =    -14273.25128789
  -Hartree energ DENC   =     -5225.84997437
  -exchange      EXHF   =         0.00000000
  -V(xc)+E(xc)   XCENC  =       660.16205757
  PAW double counting   =     16240.61624752   -19170.70422594
  entropy T*S    EENTRO =        -0.00000000
  eigenvalues    EBANDS =     -4896.31517627
  atomic energy  EATOM  =     25388.91726102
  Solvation  Ediel_sol  =         0.00000000
  ---------------------------------------------------
  free energy    TOTEN  =        94.39984464 eV

  energy without entropy =       94.39984464  energy(sigma->0) =       94.39984464


--------------------------------------------------------------------------------------------------------




--------------------------------------- Iteration      1(   8)  ---------------------------------------


     EDDAV:  cpu time   26.5012: real time   26.5078
       DOS:  cpu time    0.0115: real time    0.0115
    --------------------------------------------
      LOOP:  cpu time   26.5127: real time   26.5193

 eigenvalue-minimisations  : 19832
 total energy-change (2. order) :-0.6685332E-06  (-0.6685474E-06)
 number of electron     191.9999982 magnetization 
 augmentation part      191.9999982 magnetization 

 Free energy of the ion-electron system (eV)
  ---------------------------------------------------
  alpha Z        PSCENC =      1370.82494299
  Ewald energy   TEWEN  =    -14273.25128789
  -Hartree energ DENC   =     -5225.84997437
  -exchange      EXHF   =         0.00000000
  -V(xc)+E(xc)   XCENC  =       660.16205757
  PAW double counting   =     16240.61624752   -19170.70422594
  entropy T*S    EENTRO =        -0.00000000
  eigenvalues    EBANDS =     -4896.31517693
  atomic energy  EATOM  =     25388.91726102
  Solvation  Ediel_sol  =         0.00000000
  ---------------------------------------------------
  free energy    TOTEN  =        94.39984397 eV

  energy without entropy =       94.39984397  energy(sigma->0) =       94.39984397


--------------------------------------------------------------------------------------------------------




--------------------------------------- Iteration      1(   9)  ---------------------------------------


     EDDAV:  cpu time   26.4715: real time   26.4779
       DOS:  cpu time    0.0114: real time    0.0114
    --------------------------------------------
      LOOP:  cpu time   26.4830: real time   26.4894

 eigenvalue-minimisations  : 19808
 total energy-change (2. order) :-0.5880574E-06  (-0.5880151E-06)
 number of electron     191.9999982 magnetization 
 augmentation part      191.9999982 magnetization 

 Free energy of the ion-electron system (eV)
  ---------------------------------------------------
  alpha Z        PSCENC =      1370.82494299
  Ewald energy   TEWEN  =    -14273.25128789
  -Hartree energ DENC   =     -5225.84997437
  -exchange      EXHF   =         0.00000000
  -V(xc)+E(xc)   XCENC  =       660.16205757
  PAW double counting   =     16240.61624752   -19170.70422594
  entropy T*S    EENTRO =        -0.00000000
  eigenvalues    EBANDS =     -4896.31517752
  atomic energy  EATOM  =     25388.91726102
  Solvation  Ediel_sol  =         0.00000000
  ---------------------------------------------------
  free energy    TOTEN  =        94.39984338 eV

  energy without entropy =       94.39984338  energy(sigma->0) =       94.39984338


--------------------------------------------------------------------------------------------------------




--------------------------------------- Iteration      1(  10)  ---------------------------------------


     EDDAV:  cpu time   26.4509: real time   26.4574
       DOS:  cpu time    0.0114: real time    0.0114
    --------------------------------------------
      LOOP:  cpu time   26.4623: real time   26.4688

 eigenvalue-minimisations  : 19824
 total energy-change (2. order) :-0.4541071E-06  (-0.4541388E-06)
 number of electron     191.9999982 magnetization 
 augmentation part      191.9999982 magnetization 

 Free energy of the ion-electron system (eV)
  ---------------------------------------------------
  alpha Z        PSCENC =      1370.82494299
  Ewald energy   TEWEN  =    -14273.25128789
  -Hartree energ DENC   =     -5225.84997437
  -exchange      EXHF   =         0.00000000
  -V(xc)+E(xc)   XCENC  =       660.16205757
  PAW double counting   =     16240.61624752   -19170.70422594
  entropy T*S    EENTRO =        -0.00000000
  eigenvalues    EBANDS =     -4896.31517798
  atomic energy  EATOM  =     25388.91726102
  Solvation  Ediel_sol  =         0.00000000
  ---------------------------------------------------
  free energy    TOTEN  =        94.39984293 eV

  energy without entropy =       94.39984293  energy(sigma->0) =       94.39984293


--------------------------------------------------------------------------------------------------------




--------------------------------------- Iteration      1(  11)  ---------------------------------------


     EDDAV:  cpu time   26.5133: real time   26.5413
       DOS:  cpu time    0.0114: real time    0.0114
    --------------------------------------------
      LOOP:  cpu time   26.5247: real time   26.5527

 eigenvalue-minimisations  : 19824
 total energy-change (2. order) :-0.4005778E-06  (-0.4006249E-06)
 number of electron     191.9999982 magnetization 
 augmentation part      191.9999982 magnetization 

 Free energy of the ion-electron system (eV)
  ---------------------------------------------------
  alpha Z        PSCENC =      1370.82494299
  Ewald energy   TEWEN  =    -14273.25128789
  -Hartree energ DENC   =     -5225.84997437
  -exchange      EXHF   =         0.00000000
  -V(xc)+E(xc)   XCENC  =       660.16205757
  PAW double counting   =     16240.61624752   -19170.70422594
  entropy T*S    EENTRO =        -0.00000000
  eigenvalues    EBANDS =     -4896.31517838
  atomic energy  EATOM  =     25388.91726102
  Solvation  Ediel_sol  =         0.00000000
  ---------------------------------------------------
  free energy    TOTEN  =        94.39984253 eV

  energy without entropy =       94.39984253  energy(sigma->0) =       94.39984253


--------------------------------------------------------------------------------------------------------




--------------------------------------- Iteration      1(  12)  ---------------------------------------


     EDDAV:  cpu time   27.6308: real time   27.6403
       DOS:  cpu time    0.0115: real time    0.0115
    --------------------------------------------
      LOOP:  cpu time   27.6423: real time   27.6518

 eigenvalue-minimisations  : 19856
 total energy-change (2. order) :-0.3590030E-06  (-0.3589560E-06)
 number of electron     191.9999982 magnetization 
 augmentation part      191.9999982 magnetization 

 Free energy of the ion-electron system (eV)
  ---------------------------------------------------
  alpha Z        PSCENC =      1370.82494299
  Ewald energy   TEWEN  =    -14273.25128789
  -Hartree energ DENC   =     -5225.84997437
  -exchange      EXHF   =         0.00000000
  -V(xc)+E(xc)   XCENC  =       660.16205757
  PAW double counting   =     16240.61624752   -19170.70422594
  entropy T*S    EENTRO =        -0.00000000
  eigenvalues    EBANDS =     -4896.31517874
  atomic energy  EATOM  =     25388.91726102
  Solvation  Ediel_sol  =         0.00000000
  ---------------------------------------------------
  free energy    TOTEN  =        94.39984217 eV

  energy without entropy =       94.39984217  energy(sigma->0) =       94.39984217


--------------------------------------------------------------------------------------------------------




--------------------------------------- Iteration      1(  13)  ---------------------------------------


     EDDAV:  cpu time   26.8611: real time   26.8713
       DOS:  cpu time    0.0114: real time    0.0114
    --------------------------------------------
      LOOP:  cpu time   26.8725: real time   26.8827

 eigenvalue-minimisations  : 19832
 total energy-change (2. order) :-0.3393761E-06  (-0.3393971E-06)
 number of electron     191.9999982 magnetization 
 augmentation part      191.9999982 magnetization 

 Free energy of the ion-electron system (eV)
  ---------------------------------------------------
  alpha Z        PSCENC =      1370.82494299
  Ewald energy   TEWEN  =    -14273.25128789
  -Hartree energ DENC   =     -5225.84997437
  -exchange      EXHF   =         0.00000000
  -V(xc)+E(xc)   XCENC  =       660.16205757
  PAW double counting   =     16240.61624752   -19170.70422594
  entropy T*S    EENTRO =        -0.00000000
  eigenvalues    EBANDS =     -4896.31517907
  atomic energy  EATOM  =     25388.91726102
  Solvation  Ediel_sol  =         0.00000000
  ---------------------------------------------------
  free energy    TOTEN  =        94.39984183 eV

  energy without entropy =       94.39984183  energy(sigma->0) =       94.39984183


--------------------------------------------------------------------------------------------------------




--------------------------------------- Iteration      1(  14)  ---------------------------------------


     EDDAV:  cpu time   26.5192: real time   26.5273
       DOS:  cpu time    0.0114: real time    0.0114
    --------------------------------------------
[...]
|                        110       ( 1.00000)                                 |
|                        111       ( 1.00000)                                 |
|                        112       ( 1.00000)                                 |
|                        113       ( 1.00000)                                 |
|                        114       ( 1.00000)                                 |
|                        115       ( 1.00000)                                 |
|                        116       ( 1.00000)                                 |
|                        117       ( 1.00000)                                 |
|                        118       ( 1.00000)                                 |
|                        119       ( 1.00000)                                 |
|                        120       ( 1.00000)                                 |
|                        121       ( 1.00000)                                 |
|                        122       ( 1.00000)                                 |
|                        123       ( 1.00000)                                 |
|                        124       ( 1.00000)                                 |
|                        125       ( 1.00000)                                 |
|                        126       ( 1.00000)                                 |
|                        127       ( 1.00000)                                 |
|                        128       ( 1.00000)                                 |
|                        129       ( 1.00000)                                 |
|                        130       ( 1.00000)                                 |
|                        131       ( 1.00000)                                 |
|                        132       ( 1.00000)                                 |
|                        133       ( 1.00000)                                 |
|                        134       ( 1.00000)                                 |
|                        135       ( 1.00000)                                 |
|                        136       ( 1.00000)                                 |
|                        137       ( 1.00000)                                 |
|                        138       ( 1.00000)                                 |
|                        139       ( 1.00000)                                 |
|                        140       ( 1.00000)                                 |
|                        141       ( 1.00000)                                 |
|                        142       ( 1.00000)                                 |
|                        143       ( 1.00000)                                 |
|                        144       ( 1.00000)                                 |
|                        145       ( 1.00000)                                 |
|                        146       ( 1.00000)                                 |
|                        147       ( 1.00000)                                 |
|                        148       ( 1.00000)                                 |
|                        149       ( 1.00000)                                 |
|                        150       ( 1.00000)                                 |
|                        151       ( 1.00000)                                 |
|                        152       ( 1.00000)                                 |
|                        153       ( 1.00000)                                 |
|                        154       ( 1.00000)                                 |
|                        155       ( 1.00000)                                 |
|                        156       ( 1.00000)                                 |
|                        157       ( 1.00000)                                 |
|                        158       ( 1.00000)                                 |
|                        159       ( 1.00000)                                 |
|                        160       ( 1.00000)                                 |
|                        161       ( 1.00000)                                 |
|                        162       ( 1.00000)                                 |
|                        163       ( 1.00000)                                 |
|                        164       ( 1.00000)                                 |
|                        165       ( 1.00000)                                 |
|                        166       ( 1.00000)                                 |
|                        167       ( 1.00000)                                 |
|                        168       ( 1.00000)                                 |
|                        169       ( 1.00000)                                 |
|                        170       ( 1.00000)                                 |
|                        171       ( 1.00000)                                 |
|                        172       ( 1.00000)                                 |
|                        173       ( 1.00000)                                 |
|                        174       ( 1.00000)                                 |
|                        175       ( 1.00000)                                 |
|                        176       ( 1.00000)                                 |
|                        177       ( 1.00000)                                 |
|                        178       ( 1.00000)                                 |
|                        179       ( 1.00000)                                 |
|                        180       ( 1.00000)                                 |
|                        181       ( 1.00000)                                 |
|                        182       ( 1.00000)                                 |
|                        183       ( 1.00000)                                 |
|                        184       ( 1.00000)                                 |
|                        185       ( 1.00000)                                 |
|                        186       ( 1.00000)                                 |
|                        187       ( 1.00000)                                 |
|                        188       ( 1.00000)                                 |
|                        189       ( 1.00000)                                 |
|                        190       ( 1.00000)                                 |
|                        191       ( 1.00000)                                 |
|                        192       ( 1.00000)                                 |
|                        193       ( 1.00000)                                 |
|                        194       ( 1.00000)                                 |
|                        195       ( 1.00000)                                 |
|                        196       ( 1.00000)                                 |
|                        197       ( 1.00000)                                 |
|                        198       ( 1.00000)                                 |
|                        199       ( 1.00000)                                 |
|                        200       ( 1.00000)                                 |
|                                                                             |
|      The total occupancy of band no.    96 is   2.00000 electrons ...       |
|                                                                             |
 ----------------------------------------------------------------------------- 

 


 total charge     
 
# of ion       s       p       d       tot
------------------------------------------
    1        0.302   6.249   0.085   6.636
    2        0.302   6.249   0.085   6.636
    3        0.302   6.249   0.085   6.636
    4        0.302   6.249   0.085   6.636
    5        0.301   6.249   0.085   6.636
    6        0.301   6.249   0.085   6.635
    7        0.302   6.249   0.085   6.636
    8        0.302   6.249   0.085   6.636
    9        0.445   6.339   0.110   6.894
   10        0.445   6.339   0.110   6.895
   11        0.445   6.339   0.110   6.894
   12        0.445   6.339   0.110   6.894
   13        0.445   6.339   0.110   6.895
   14        0.446   6.339   0.110   6.895
   15        0.445   6.339   0.110   6.895
   16        0.446   6.339   0.110   6.895
   17        0.446   6.339   0.110   6.895
   18        0.445   6.339   0.110   6.895
   19        0.445   6.339   0.110   6.895
   20        0.445   6.339   0.110   6.895
   21        0.445   6.339   0.110   6.895
   22        0.445   6.339   0.110   6.894
   23        0.445   6.339   0.110   6.895
   24        0.445   6.339   0.110   6.894
--------------------------------------------------
tot          9.538 151.418   2.445 163.400
 
    CHARGE:  cpu time    2.5750: real time    2.5761
    FORLOC:  cpu time    0.0058: real time    0.0058
    FORNL :  cpu time   20.6930: real time   20.6979
    STRESS:  cpu time   19.4387: real time   19.4437
    FORCOR:  cpu time    0.0274: real time    0.0274
    FORHAR:  cpu time    0.0089: real time    0.0089
    OFIELD:  cpu time    0.0001: real time    0.0001

  FORCE on cell =-STRESS in cart. coord.  units (eV):
  Direction    XX          YY          ZZ          XY          YZ          ZX
  --------------------------------------------------------------------------------------
  Alpha Z  1370.82494  1370.82494  1370.82494
  Ewald   -3808.61729 -3808.60525 -6656.08519     0.01047    -0.00000    -0.00000
  Hartree  2189.04253  2189.04576   847.82926     0.00279    -0.00000    -0.00000
  E(xc)   -1135.01543 -1135.01519 -1134.98127     0.00021     0.00001     0.00000
  Local      54.47176    54.45897  3968.29760    -0.01110     0.00000     0.00000
  n-local -1335.30168 -1336.73835 -1305.22940    -0.06838    -0.00023     0.00074
  augment   593.25836   593.25618   651.12044    -0.00190    -0.00004    -0.00002
  Kinetic  2392.78607  2389.90699  2435.59256     2.02033    -0.00035     0.00060
  Fock        0.00000     0.00000     0.00000     0.00000     0.00000     0.00000
  -------------------------------------------------------------------------------------
  Total     319.29164   319.29165   177.36894     0.00000    -0.00000    -0.00000
  in kB    2211.31520  2211.31526  1228.40246     0.00000    -0.00000    -0.00000
  external pressure =     1883.68 kB  Pullay stress =        0.00 kB


 VOLUME and BASIS-vectors are now :
 -----------------------------------------------------------------------------
  energy-cutoff  :      490.00
  volume of cell :      231.34
      direct lattice vectors                 reciprocal lattice vectors
     6.147360000  0.000000000  0.000000000     0.162671456  0.093918407  0.000000000
    -3.073680000  5.323770000  0.000000000     0.000000000  0.187836815  0.000000000
     0.000000000  0.000000000  7.068700000     0.000000000  0.000000000  0.141468728

  length of vectors
     6.147360000  6.147360064  7.068700000     0.187836817  0.187836815  0.141468728


 FORCES acting on ions
    electron-ion (+dipol)            ewald-force                    non-local-force                 convergence-correction
 -----------------------------------------------------------------------------------------------
   -.437E-14 0.330E-13 -.411E-13   0.639E-13 0.568E-13 0.426E-13   -.847E-21 0.169E-20 -.138E-20   0.110E-11 -.712E-11 0.426E-11
   -.428E-15 0.361E-13 0.613E-12   0.507E-13 0.568E-13 0.000E+00   -.847E-21 0.169E-20 -.212E-21   0.474E-11 0.652E-11 -.749E-11
   -.265E-13 0.174E-13 -.373E-13   0.853E-13 0.782E-13 0.142E-13   -.106E-20 0.127E-20 0.932E-20   -.354E-11 0.849E-11 0.379E-11
   -.230E-13 0.202E-13 0.616E-12   0.114E-12 0.711E-13 0.000E+00   0.212E-21 0.635E-21 -.127E-19   0.760E-11 0.971E-11 -.241E-11
   -.428E-13 -.405E-15 -.266E-11   0.924E-13 0.773E-13 0.000E+00   0.180E-20 0.847E-21 -.102E-19   -.422E-11 -.338E-11 0.626E-11
   -.425E-13 0.126E-13 0.127E-11   0.121E-12 0.800E-13 -.711E-14   0.635E-21 -.233E-20 0.186E-19   -.243E-11 -.668E-11 -.181E-11
   -.232E-11 0.394E-11 -.261E-11   0.426E-13 0.568E-13 0.000E+00   0.847E-21 0.169E-20 0.847E-21   0.843E-11 0.591E-11 0.270E-11
   -.618E-12 0.998E-12 -.164E-11   0.568E-13 0.639E-13 0.142E-13   -.254E-20 0.169E-20 0.847E-21   0.820E-12 0.542E-11 -.344E-12
   -.158E-03 0.877E-04 -.165E-11   0.124E-02 -.708E-03 -.144E-13   -.127E-17 -.564E-17 -.110E-19   0.923E-02 -.533E-02 -.126E-09
   0.158E-03 -.877E-04 -.991E-11   -.124E-02 0.708E-03 -.248E-13   0.702E-17 -.217E-18 0.678E-20   -.923E-02 0.533E-02 0.145E-09
   -.158E-03 0.877E-04 0.665E-12   0.124E-02 -.708E-03 0.109E-13   -.279E-17 0.651E-18 -.271E-19   0.923E-02 -.533E-02 -.139E-09
   0.158E-03 -.877E-04 -.566E-11   -.124E-02 0.708E-03 0.148E-13   0.580E-17 -.542E-17 0.339E-20   -.923E-02 0.533E-02 0.136E-09
   -.158E-03 0.877E-04 -.161E-11   0.124E-02 -.708E-03 -.140E-13   0.144E-16 0.656E-17 0.347E-19   0.923E-02 -.533E-02 -.129E-09
   0.158E-03 -.877E-04 -.101E-10   -.124E-02 0.708E-03 -.244E-13   0.121E-16 0.119E-17 0.169E-19   -.923E-02 0.533E-02 0.146E-09
   -.158E-03 0.877E-04 0.478E-12   0.124E-02 -.708E-03 0.115E-13   -.935E-17 0.651E-18 0.203E-19   0.923E-02 -.533E-02 -.138E-09
   0.158E-03 -.877E-04 -.584E-11   -.124E-02 0.708E-03 0.155E-13   0.134E-16 0.114E-17 -.136E-19   -.923E-02 0.533E-02 0.134E-09
   -.158E-03 0.877E-04 0.127E-10   0.124E-02 -.708E-03 -.154E-13   -.125E-17 -.217E-17 0.339E-20   0.923E-02 -.533E-02 -.152E-09
   0.158E-03 -.877E-04 -.996E-11   -.124E-02 0.708E-03 -.186E-13   -.156E-16 -.629E-17 -.318E-19   -.923E-02 0.533E-02 0.142E-09
   -.158E-03 0.877E-04 0.976E-11   0.124E-02 -.708E-03 -.399E-14   -.537E-17 -.108E-17 -.136E-19   0.923E-02 -.533E-02 -.153E-09
   0.158E-03 -.877E-04 -.131E-10   -.124E-02 0.708E-03 0.688E-14   0.320E-17 -.217E-18 -.186E-19   -.923E-02 0.533E-02 0.122E-09
   -.158E-03 0.877E-04 0.126E-10   0.124E-02 -.708E-03 -.148E-13   -.857E-17 0.488E-18 0.000E+00   0.923E-02 -.533E-02 -.147E-09
   0.158E-03 -.877E-04 -.996E-11   -.124E-02 0.708E-03 -.109E-13   0.165E-17 0.726E-17 0.000E+00   -.923E-02 0.533E-02 0.119E-09
   -.158E-03 0.877E-04 0.985E-11   0.124E-02 -.708E-03 0.106E-13   -.651E-18 0.585E-17 0.678E-19   0.923E-02 -.533E-02 -.157E-09
   0.158E-03 -.877E-04 -.131E-10   -.124E-02 0.708E-03 0.193E-15   0.147E-16 -.754E-17 0.678E-20   -.923E-02 0.533E-02 0.124E-09
 -----------------------------------------------------------------------------------------------
   -.623E-11 0.536E-11 -.394E-10   -.561E-13 0.228E-13 -.711E-14   0.275E-16 -.476E-17 0.497E-19   0.276E-10 0.453E-11 -.686E-10
 
 
 POSITION                                       TOTAL-FORCE (eV/Angst)
 -----------------------------------------------------------------------------------
      0.00000      0.00000      0.00000        -0.000000      0.000000     -0.000000
      0.00000      0.00000      3.53435        -0.000000      0.000000     -0.000000
     -1.53684      2.66188      0.00000        -0.000000      0.000000     -0.000000
     -1.53684      2.66188      3.53435        -0.000000      0.000000     -0.000000
      3.07368      0.00000      0.00000        -0.000000      0.000000      0.000000
      3.07368      0.00000      3.53435        -0.000000      0.000000     -0.000000
      1.53684      2.66188      0.00000        -0.000000      0.000000     -0.000000
      1.53684      2.66188      3.53435        -0.000000      0.000000     -0.000000
     -0.00000      1.77459      1.76717         0.000000     -0.000000      0.000000
      1.53684      0.88729      1.76717        -0.000000      0.000000     -0.000000
     -0.00000      1.77459      5.30152         0.000000     -0.000000     -0.000000
      1.53684      0.88729      5.30152        -0.000000      0.000000      0.000000
     -1.53684      4.43648      1.76717         0.000000     -0.000000     -0.000000
      0.00000      3.54918      1.76717        -0.000000      0.000000     -0.000000
     -1.53684      4.43648      5.30152         0.000000     -0.000000     -0.000000
      0.00000      3.54918      5.30152        -0.000000      0.000000     -0.000000
      3.07368      1.77459      1.76717         0.000000     -0.000000      0.000000
      4.61052      0.88729      1.76717        -0.000000      0.000000      0.000000
      3.07368      1.77459      5.30152         0.000000     -0.000000     -0.000000
      4.61052      0.88729      5.30152        -0.000000      0.000000      0.000000
      1.53684      4.43648      1.76717         0.000000     -0.000000     -0.000000
      3.07368      3.54918      1.76717        -0.000000      0.000000      0.000000
      1.53684      4.43648      5.30152         0.000000     -0.000000     -0.000000
      3.07368      3.54918      5.30152        -0.000000      0.000000     -0.000000
 -----------------------------------------------------------------------------------
    total drift:                                0.000000      0.000000     -0.000000


--------------------------------------------------------------------------------------------------------



  FREE ENERGIE OF THE ION-ELECTRON SYSTEM (eV)
  ---------------------------------------------------
  free  energy   TOTEN  =        94.39983718 eV

  energy  without entropy=       94.39983718  energy(sigma->0) =       94.39983718
 


--------------------------------------------------------------------------------------------------------


    POTLOK:  cpu time    0.0528: real time    0.0529


--------------------------------------------------------------------------------------------------------


 writing wavefunctions
     LOOP+:  cpu time 1014.4336: real time 1014.8764
    4ORBIT:  cpu time    0.0000: real time    0.0000
 


 total charge     
 
# of ion       s       p       d       tot
------------------------------------------
    1        0.302   6.249   0.085   6.636
    2        0.302   6.249   0.085   6.636
    3        0.302   6.249   0.085   6.636
    4        0.302   6.249   0.085   6.636
    5        0.301   6.249   0.085   6.636
    6        0.301   6.249   0.085   6.635
    7        0.302   6.249   0.085   6.636
    8        0.302   6.249   0.085   6.636
    9        0.445   6.339   0.110   6.894
   10        0.445   6.339   0.110   6.895
   11        0.445   6.339   0.110   6.894
   12        0.445   6.339   0.110   6.894
   13        0.445   6.339   0.110   6.895
   14        0.446   6.339   0.110   6.895
   15        0.445   6.339   0.110   6.895
   16        0.446   6.339   0.110   6.895
   17        0.446   6.339   0.110   6.895
   18        0.445   6.339   0.110   6.895
   19        0.445   6.339   0.110   6.895
   20        0.445   6.339   0.110   6.895
   21        0.445   6.339   0.110   6.895
   22        0.445   6.339   0.110   6.894
   23        0.445   6.339   0.110   6.895
   24        0.445   6.339   0.110   6.894
--------------------------------------------------
tot          9.538 151.418   2.445 163.400
 

 total amount of memory used by VASP MPI-rank0   184987. kBytes
=======================================================================

   base      :      30000. kBytes
   nonl-proj :      30228. kBytes
   fftplans  :       5459. kBytes
   grid      :       2540. kBytes
   one-center:         24. kBytes
   wavefun   :     116736. kBytes
 
  
  
 General timing and accounting informations for this job:
 ========================================================
  
                  Total CPU time used (sec):     1040.494
                            User time (sec):     1021.020
                          System time (sec):       19.475
                         Elapsed time (sec):     1040.959
  
                   Maximum memory used (kb):      310616.
                   Average memory used (kb):           0.
  
                          Minor page faults:       579511
                          Major page faults:            0
                 Voluntary context switches:          344
