 vasp.5.4.4.18Apr17-6-g9f103f2a35 (build Sep 25 2018 16:56:37) complex          
  
 executed on             LinuxIFC date 2019.01.29  20:52:35
 running on    5 total cores
 distrk:  each k-point on    5 cores,    1 groups
 distr:  one band on NCORES_PER_BAND=   1 cores,    5 groups


--------------------------------------------------------------------------------------------------------


 INCAR:
 POTCAR:    PAW Sr_sv 10Feb1998                   
 POTCAR:    PAW V 07Aug2001                       
 POTCAR:    PAW O 22Mar2012                       

 ----------------------------------------------------------------------------- 
|                                                                             |
|           W    W    AA    RRRRR   N    N  II  N    N   GGGG   !!!           |
|           W    W   A  A   R    R  NN   N  II  NN   N  G    G  !!!           |
|           W    W  A    A  R    R  N N  N  II  N N  N  G       !!!           |
|           W WW W  AAAAAA  RRRRR   N  N N  II  N  N N  G  GGG   !            |
|           WW  WW  A    A  R   R   N   NN  II  N   NN  G    G                |
|           W    W  A    A  R    R  N    N  II  N    N   GGGG   !!!           |
|                                                                             |
|      For optimal performance we recommend to set                            |
|        NCORE= 4 - approx SQRT( number of cores)                             |
|      NCORE specifies how many cores store one orbital (NPAR=cpu/NCORE).     |
|      This setting can  greatly improve the performance of VASP for DFT.     |
|      The default,   NCORE=1            might be grossly inefficient         |
|      on modern multi-core architectures or massively parallel machines.     |
|      Do your own testing !!!!                                               |
|      Unfortunately you need to use the default for GW and RPA calculations. |
|      (for HF NCORE is supported but not extensively tested yet)             |
|                                                                             |
 ----------------------------------------------------------------------------- 

 POTCAR:    PAW Sr_sv 10Feb1998                   
   VRHFIN =Sr: 3s3p4s                                                           
   LEXCH  = CA                                                                  
   EATOM  =   845.5689 eV,   62.1476 Ry                                         
                                                                                
   TITEL  = PAW Sr_sv 10Feb1998                                                 
   LULTRA =        F    use ultrasoft PP ?                                      
   IUNSCR =        1    unscreen: 0-lin 1-nonlin 2-no                           
   RPACOR =    2.200    partial core radius                                     
   POMASS =   87.620; ZVAL   =   10.000    mass and valenz                      
   RCORE  =    2.500    outmost cutoff radius                                   
   RWIGS  =    4.040; RWIGS  =    2.138    wigner-seitz radius (au A)           
   ENMAX  =  226.327; ENMIN  =  169.745 eV                                      
   RCLOC  =    2.201    cutoff for local pot                                    
   LCOR   =        T    correct aug charges                                     
   LPAW   =        T    paw PP                                                  
   EAUG   =  366.804                                                            
   DEXC   =    0.000                                                            
   RMAX   =    2.547    core radius for proj-oper                               
   RAUG   =    1.300    factor for augmentation sphere                          
   RDEP   =    2.562    radius for radial grids                                 
   RDEPT  =    2.145    core radius for aug-charge                              
                                                                                
   Atomic configuration                                                         
   10 entries                                                                   
     n  l   j            E        occ.                                          
     1  0  0.50    -15851.8828   2.0000                                         
     2  0  0.50     -2148.9480   2.0000                                         
     2  1  1.50     -1912.9353   6.0000                                         
     3  0  0.50      -331.8462   2.0000                                         
     3  1  1.50      -255.3856   6.0000                                         
     3  2  2.50      -128.2784  10.0000                                         
     4  0  0.50       -40.8303   2.0000                                         
     5  0  0.50        -3.6422   1.9990                                         
     4  1  1.50       -22.8493   6.0000                                         
     4  2  1.50        -1.4198   0.0010                                         
   Description                                                                  
     l       E           TYP  RCUT    TYP  RCUT                                 
     0    -40.8303494     23  2.500                                             
     0     -3.6421860     23  2.500                                             
     1    -22.8492718     23  2.500                                             
     1    -24.2098544     23  2.500                                             
     2     -1.4197899     23  2.500                                             
     2      0.0045700     23  2.500                                             
  local pseudopotential read in
  partial core-charges read in
  partial kinetic energy density read in
  atomic valenz-charges read in
  non local Contribution for L=           0  read in
    real space projection operators read in
  non local Contribution for L=           0  read in
    real space projection operators read in
  non local Contribution for L=           1  read in
    real space projection operators read in
  non local Contribution for L=           1  read in
    real space projection operators read in
  non local Contribution for L=           2  read in
    real space projection operators read in
  non local Contribution for L=           2  read in
    real space projection operators read in
    PAW grid and wavefunctions read in
 
   number of l-projection  operators is LMAX  =           6
   number of lm-projection operators is LMMAX =          18
 
 POTCAR:    PAW V 07Aug2001                       
   VRHFIN =V: d4 s1                                                             
   LEXCH  = CA                                                                  
   EATOM  =   172.4520 eV,   12.6749 Ry                                         
                                                                                
   TITEL  = PAW V 07Aug2001                                                     
   LULTRA =        F    use ultrasoft PP ?                                      
   IUNSCR =        1    unscreen: 0-lin 1-nonlin 2-no                           
   RPACOR =    2.000    partial core radius                                     
   POMASS =   50.941; ZVAL   =    5.000    mass and valenz                      
   RCORE  =    2.700    outmost cutoff radius                                   
   RWIGS  =    2.500; RWIGS  =    1.323    wigner-seitz radius (au A)           
   ENMAX  =  192.706; ENMIN  =  144.529 eV                                      
   RCLOC  =    1.779    cutoff for local pot                                    
   LCOR   =        T    correct aug charges                                     
   LPAW   =        T    paw PP                                                  
   EAUG   =  358.662                                                            
   DEXC   =    0.000                                                            
   RMAX   =    2.768    core radius for proj-oper                               
   RAUG   =    1.300    factor for augmentation sphere                          
   RDEP   =    2.762    radius for radial grids                                 
   RDEPT  =    2.240    core radius for aug-charge                              
                                                                                
   Atomic configuration                                                         
    9 entries                                                                   
     n  l   j            E        occ.                                          
     1  0  0.50     -5334.6266   2.0000                                         
     2  0  0.50      -595.8619   2.0000                                         
     2  1  1.50      -498.2253   6.0000                                         
     3  0  0.50       -66.0397   2.0000                                         
     3  1  1.50       -40.3979   6.0000                                         
     3  2  2.50        -2.6339   4.0000                                         
     4  0  0.50        -4.0392   1.0000                                         
     4  1  0.50        -4.0817   0.0000                                         
     4  3  2.50        -1.3606   0.0000                                         
   Description                                                                  
     l       E           TYP  RCUT    TYP  RCUT                                 
     2     -2.6338511     23  2.700                                             
     2     -3.9944337     23  2.700                                             
     0     -4.0392463     23  2.700                                             
     0     27.2116520     23  2.700                                             
     1     -4.0817478     23  2.700                                             
     1     27.2116520     23  2.700                                             
  local pseudopotential read in
  partial core-charges read in
  partial kinetic energy density read in
  atomic valenz-charges read in
  non local Contribution for L=           2  read in
    real space projection operators read in
  non local Contribution for L=           2  read in
    real space projection operators read in
  non local Contribution for L=           0  read in
    real space projection operators read in
  non local Contribution for L=           0  read in
    real space projection operators read in
  non local Contribution for L=           1  read in
    real space projection operators read in
  non local Contribution for L=           1  read in
    real space projection operators read in
    PAW grid and wavefunctions read in
 
   number of l-projection  operators is LMAX  =           6
   number of lm-projection operators is LMMAX =          18
 
 POTCAR:    PAW O 22Mar2012                       
   VRHFIN =O: s2p4                                                              
   LEXCH  = CA                                                                  
   EATOM  =   431.4380 eV,   31.7098 Ry                                         
                                                                                
   TITEL  = PAW O 22Mar2012                                                     
   LULTRA =        F    use ultrasoft PP ?                                      
   IUNSCR =        1    unscreen: 0-lin 1-nonlin 2-no                           
   RPACOR =    1.200    partial core radius                                     
   POMASS =   16.000; ZVAL   =    6.000    mass and valenz                      
   RCORE  =    1.520    outmost cutoff radius                                   
   RWIGS  =    1.550; RWIGS  =    0.820    wigner-seitz radius (au A)           
   ENMAX  =  400.000; ENMIN  =  300.000 eV                                      
   ICORE  =        2    local potential                                         
   LCOR   =        T    correct aug charges                                     
   LPAW   =        T    paw PP                                                  
   EAUG   =  605.392                                                            
   DEXC   =    0.000                                                            
   RMAX   =    1.553    core radius for proj-oper                               
   RAUG   =    1.300    factor for augmentation sphere                          
   RDEP   =    1.550    radius for radial grids                                 
   RDEPT  =    1.329    core radius for aug-charge                              
                                                                                
   Atomic configuration                                                         
    4 entries                                                                   
     n  l   j            E        occ.                                          
     1  0  0.50      -510.4605   2.0000                                         
     2  0  0.50       -23.7367   2.0000                                         
     2  1  0.50        -9.1995   4.0000                                         
     3  2  1.50        -9.5241   0.0000                                         
   Description                                                                  
     l       E           TYP  RCUT    TYP  RCUT                                 
     0    -23.7366993     23  1.200                                             
     0     -9.5240782     23  1.200                                             
     1     -9.1994509     23  1.520                                             
     1      8.1634956     23  1.520                                             
     2     -9.5240782      7  1.500                                             
  local pseudopotential read in
  partial core-charges read in
  partial kinetic energy density read in
  kinetic energy density of atom read in
  atomic valenz-charges read in
  non local Contribution for L=           0  read in
    real space projection operators read in
  non local Contribution for L=           0  read in
    real space projection operators read in
  non local Contribution for L=           1  read in
    real space projection operators read in
  non local Contribution for L=           1  read in
    real space projection operators read in
    PAW grid and wavefunctions read in
 
   number of l-projection  operators is LMAX  =           4
   number of lm-projection operators is LMMAX =           8
 

 ----------------------------------------------------------------------------- 
|                                                                             |
|  ADVICE TO THIS USER RUNNING 'VASP/VAMP'   (HEAR YOUR MASTER'S VOICE ...):  |
|                                                                             |
|      You enforced a specific xc-type in the INCAR file,                     |
|      a different type was found on the POTCAR file                          |
|          I HOPE YOU KNOW, WHAT YOU ARE  DOING                               |
|                                                                             |
 ----------------------------------------------------------------------------- 

  PAW Sr_sv 10Feb1998                   :
 energy of atom  1       EATOM= -845.5689
 kinetic energy error for atom=    0.0006 (will be added to EATOM!!)
  PAW V 07Aug2001                       :
 energy of atom  2       EATOM= -172.4520
 kinetic energy error for atom=    0.0002 (will be added to EATOM!!)
  PAW O 22Mar2012                       :
 energy of atom  3       EATOM= -431.4380
 kinetic energy error for atom=    0.0165 (will be added to EATOM!!)
 
 
 POSCAR: Sr V O                                  
  positions in direct lattice
  No initial velocities read in
 exchange correlation table for  LEXCH =       14
   RHO(1)=    0.500       N(1)  =     2000
   RHO(2)=  100.500       N(2)  =     4000
 


--------------------------------------------------------------------------------------------------------


 ion  position               nearest neighbor table
   1  0.000  0.000  0.000-   3 2.72   4 2.72   5 2.72   4 2.72   5 2.72   3 2.72   5 2.72   5 2.72
                             3 2.72   4 2.72   4 2.72   3 2.72   2 3.33   2 3.33   2 3.33   2 3.33
   2  0.500  0.500  0.500-   3 1.92   4 1.92   5 1.92   3 1.92   4 1.92   5 1.92   1 3.33   1 3.33
                             1 3.33   1 3.33   1 3.33   1 3.33   1 3.33   1 3.33
   3  0.500  0.500  0.000-   2 1.92   2 1.92   1 2.72   1 2.72   1 2.72   1 2.72
   4  0.500  0.000  0.500-   2 1.92   2 1.92   1 2.72   1 2.72   1 2.72   1 2.72
   5  0.000  0.500  0.500-   2 1.92   2 1.92   1 2.72   1 2.72   1 2.72   1 2.72
 
  LATTYP: Found a simple cubic cell.
 ALAT       =     3.8465200000
  
  Lattice vectors:
  
 A1 = (   3.8465200000,   0.0000000000,   0.0000000000)
 A2 = (   0.0000000000,   3.8465200000,   0.0000000000)
 A3 = (   0.0000000000,   0.0000000000,   3.8465200000)


Analysis of symmetry for initial positions (statically):
=====================================================================
 Subroutine PRICEL returns:
 Original cell was already a primitive cell.
 

 Routine SETGRP: Setting up the symmetry group for a 
 simple cubic supercell.


 Subroutine GETGRP returns: Found 48 space group operations
 (whereof 48 operations were pure point group operations)
 out of a pool of 48 trial point group operations.


The static configuration has the point symmetry O_h .


Analysis of symmetry for dynamics (positions and initial velocities):
=====================================================================
 Subroutine PRICEL returns:
 Original cell was already a primitive cell.
 

 Routine SETGRP: Setting up the symmetry group for a 
 simple cubic supercell.


 Subroutine GETGRP returns: Found 48 space group operations
 (whereof 48 operations were pure point group operations)
 out of a pool of 48 trial point group operations.


The dynamic configuration has the point symmetry O_h .


Analysis of structural, dynamic, and magnetic symmetry:
=====================================================================
 Subroutine PRICEL returns:
 Original cell was already a primitive cell.
 

 Routine SETGRP: Setting up the symmetry group for a 
 simple cubic supercell.


 Subroutine GETGRP returns: Found  2 space group operations
 (whereof  2 operations were pure point group operations)
 out of a pool of 48 trial point group operations.


The (compounded) configuration has the point symmetry S_2 .


 Subroutine INISYM returns: Found  2 space group operations
 (whereof  2 operations are pure point group operations),
 and found     1 'primitive' translations

 
 
 KPOINTS: KPOINTS generated by PyProcar           
  interpolating k-points between supplied coordinates
  k-points in reciprocal lattice
Space group operators:
 irot       det(A)        alpha          n_x          n_y          n_z        tau_x        tau_y        tau_z
    1     1.000000     0.000000     1.000000     0.000000     0.000000     0.000000     0.000000     0.000000
    2    -1.000000     0.000000     1.000000     0.000000     0.000000     0.000000     0.000000     0.000000

 ----------------------------------------------------------------------------- 
|                                                                             |
|           W    W    AA    RRRRR   N    N  II  N    N   GGGG   !!!           |
|           W    W   A  A   R    R  NN   N  II  NN   N  G    G  !!!           |
|           W    W  A    A  R    R  N N  N  II  N N  N  G       !!!           |
|           W WW W  AAAAAA  RRRRR   N  N N  II  N  N N  G  GGG   !            |
|           WW  WW  A    A  R   R   N   NN  II  N   NN  G    G                |
|           W    W  A    A  R    R  N    N  II  N    N   GGGG   !!!           |
|                                                                             |
|      The number of bands has been changed from the values supplied          |
|      in the INCAR file. This is a result of running the parallel version.   |
|      The orbitals not found in the WAVECAR file will be initialized with    |
|      random numbers, which is usually adequate. For correlated              |
|      calculations, however, you should redo the groundstate calculation.    |
|      I found NBANDS    =       46  now  NBANDS  =      50                   |
|                                                                             |
 ----------------------------------------------------------------------------- 



--------------------------------------------------------------------------------------------------------




 Dimension of arrays:
   k-points           NKPTS =    160   k-points in BZ     NKDIM =    160   number of bands    NBANDS=     50
   number of dos      NEDOS =    301   number of ions     NIONS =      5
   non local maximal  LDIM  =      6   non local SUM 2l+1 LMDIM =     18
   total plane-waves  NPLWV =  13824
   max r-space proj   IRMAX =      1   max aug-charges    IRDMAX= 118030
   dimension x,y,z NGX =    24 NGY =   24 NGZ =   24
   dimension x,y,z NGXF=    48 NGYF=   48 NGZF=   48
   support grid    NGXF=    96 NGYF=   96 NGZF=   96
   ions per type =               1   1   3
   NGX,Y,Z   is equivalent  to a cutoff of  10.37, 10.37, 10.37 a.u.
   NGXF,Y,Z  is equivalent  to a cutoff of  20.75, 20.75, 20.75 a.u.

 SYSTEM =  SrVO3 	                                 
 POSCAR =  Sr V O                                  

 Startparameter for this run:
   NWRITE =      2    write-flag & timer
   PREC   = normal    normal or accurate (medium, high low for compatibility)
   ISTART =      1    job   : 0-new  1-cont  2-samecut
   ICHARG =     11    charge: 1-file 2-atom 10-const
   ISPIN  =      1    spin polarized calculation?
   LNONCOLLINEAR =      T non collinear calculations
   LSORBIT =      F    spin-orbit coupling
   INIWAV =      1    electr: 0-lowe 1-rand  2-diag
   LASPH  =      F    aspherical Exc in radial PAW
   METAGGA=      F    non-selfconsistent MetaGGA calc.

 Electronic Relaxation 1
   ENCUT  =  600.0 eV  44.10 Ry    6.64 a.u.   7.68  7.68  7.68*2*pi/ulx,y,z
   ENINI  =  600.0     initial cutoff
   ENAUG  =  605.4 eV  augmentation charge cutoff
   NELM   =     60;   NELMIN=  2; NELMDL=  0     # of ELM steps 
   EDIFF  = 0.1E-03   stopping-criterion for ELM
   LREAL  =      F    real-space projection
   NLSPLINE    = F    spline interpolate recip. space projectors
   LCOMPAT=      F    compatible to vasp.4.4
   GGA_COMPAT  = T    GGA compatible to vasp.4.4-vasp.4.6
   LMAXPAW     = -100 max onsite density
   LMAXMIX     =    4 max onsite mixed and CHGCAR
   VOSKOWN=      0    Vosko Wilk Nusair interpolation
   ROPT   =    0.00000   0.00000   0.00000
 Ionic relaxation
   EDIFFG = 0.1E-02   stopping-criterion for IOM
   NSW    =      0    number of steps for IOM
   NBLOCK =      1;   KBLOCK =      1    inner block; outer block 
   IBRION =     -1    ionic relax: 0-MD 1-quasi-New 2-CG
   NFREE  =      0    steps in history (QN), initial steepest desc. (CG)
   ISIF   =      2    stress and relaxation
   IWAVPR =     10    prediction:  0-non 1-charg 2-wave 3-comb
   ISYM   =      2    0-nonsym 1-usesym 2-fastsym
   LCORR  =      T    Harris-Foulkes like correction to forces

   POTIM  = 0.5000    time-step for ionic-motion
   TEIN   =    0.0    initial temperature
   TEBEG  =    0.0;   TEEND  =   0.0 temperature during run
   SMASS  =  -3.00    Nose mass-parameter (am)
   estimated Nose-frequenzy (Omega)   =  0.10E-29 period in steps =****** mass=  -0.338E-27a.u.
   SCALEE = 1.0000    scale energy and forces
   NPACO  =    256;   APACO  = 16.0  distance and # of slots for P.C.
   PSTRESS=    0.0 pullay stress

  Mass of Ions in am
   POMASS =  87.62 50.94 16.00
  Ionic Valenz
   ZVAL   =  10.00  5.00  6.00
  Atomic Wigner-Seitz radii
   RWIGS  =  -1.00 -1.00 -1.00
  virtual crystal weights 
   VCA    =   1.00  1.00  1.00
   NELECT =      33.0000    total number of electrons
   NUPDOWN=      -1.0000    fix difference up-down

 DOS related values:
   EMIN   =  10.00;   EMAX   =-10.00  energy-range for DOS
   EFERMI =   0.00
   ISMEAR =     0;   SIGMA  =   0.20  broadening in eV -4-tet -1-fermi 0-gaus

 Electronic relaxation 2 (details)
   IALGO  =     48    algorithm
   LDIAG  =      T    sub-space diagonalisation (order eigenvalues)
   LSUBROT=      F    optimize rotation matrix (better conditioning)
   TURBO    =      0    0=normal 1=particle mesh
   IRESTART =      0    0=no restart 2=restart with 2 vectors
   NREBOOT  =      0    no. of reboots
   NMIN     =      0    reboot dimension
   EREF     =   0.00    reference energy to select bands
   IMIX   =      4    mixing-type and parameters
     AMIX     =   0.40;   BMIX     =  1.00
     AMIX_MAG =   1.60;   BMIX_MAG =  1.00
     AMIN     =   0.10
     WC   =   100.;   INIMIX=   1;  MIXPRE=   1;  MAXMIX= -45

 Intra band minimization:
   WEIMIN = 0.0000     energy-eigenvalue tresh-hold
   EBREAK =  0.50E-06  absolut break condition
   DEPER  =   0.30     relativ break condition  

   TIME   =   0.40     timestep for ELM

  volume/ion in A,a.u.               =      11.38        76.81
  Fermi-wavevector in a.u.,A,eV,Ry     =   1.365143  2.579746 25.356027  1.863615
  Thomas-Fermi vector in A             =   2.491397
 
 Write flags
   LWAVE        =      T    write WAVECAR
   LDOWNSAMPLE  =      F    k-point downsampling of WAVECAR
   LCHARG       =      T    write CHGCAR
   LVTOT        =      F    write LOCPOT, total local potential
   LVHAR        =      F    write LOCPOT, Hartree potential only
   LELF         =      F    write electronic localiz. function (ELF)
   LORBIT       =     11    0 simple, 1 ext, 2 COOP (PROOUT), +10 PAW based schemes


 Dipole corrections
   LMONO  =      F    monopole corrections only (constant potential shift)
   LDIPOL =      F    correct potential (dipole corrections)
   IDIPOL =      0    1-x, 2-y, 3-z, 4-all directions 
   EPSILON=  1.0000000 bulk dielectric constant

 Exchange correlation treatment:
   GGA     =    PS    GGA type
   LEXCH   =    14    internal setting for exchange type
   VOSKOWN=      0    Vosko Wilk Nusair interpolation
   LHFCALC =     F    Hartree Fock is set to
   LHFONE  =     F    Hartree Fock one center treatment
   AEXX    =    0.0000 exact exchange contribution

 Linear response parameters
   LEPSILON=     F    determine dielectric tensor
   LRPA    =     F    only Hartree local field effects (RPA)
   LNABLA  =     F    use nabla operator in PAW spheres
   LVEL    =     F    velocity operator in full k-point grid
   LINTERFAST=   F  fast interpolation
   KINTER  =     0    interpolate to denser k-point grid
   CSHIFT  =0.1000    complex shift for real part using Kramers Kronig
   OMEGAMAX=  -1.0    maximum frequency
   DEG_THRESHOLD= 0.2000000E-02 threshold for treating states as degnerate
   RTIME   =   -0.100 relaxation time in fs
  (WPLASMAI=    0.000 imaginary part of plasma frequency in eV, 0.658/RTIME)
   DFIELD  = 0.0000000 0.0000000 0.0000000 field for delta impulse in time
 
 Orbital magnetization related:
   ORBITALMAG=     F  switch on orbital magnetization
   LCHIMAG   =     F  perturbation theory with respect to B field
   DQ        =  0.001000  dq finite difference perturbation B field
   LLRAUG    =     F  two centre corrections for induced B field



--------------------------------------------------------------------------------------------------------


 Static calculation
 charge density and potential remain constant during run
 non collinear spin polarized calculation
 RMM-DIIS sequential band-by-band
 perform sub-space diagonalisation
    before iterative eigenvector-optimisation
 no mixing
 using additional bands           33
 reciprocal scheme for non local part
 use partial core corrections
 calculate Harris-corrections to forces 
   (improved forces if not selfconsistent)
 use gradient corrections 
 WARNING: stress and forces are not correct
  (second derivative of E(xc) not defined)
 use of overlap-Matrix (Vanderbilt PP)
 Gauss-broadening in eV      SIGMA  =   0.20


--------------------------------------------------------------------------------------------------------


  energy-cutoff  :      600.00
  volume of cell :       56.91
      direct lattice vectors                 reciprocal lattice vectors
     3.846520000  0.000000000  0.000000000     0.259975250  0.000000000  0.000000000
     0.000000000  3.846520000  0.000000000     0.000000000  0.259975250  0.000000000
     0.000000000  0.000000000  3.846520000     0.000000000  0.000000000  0.259975250

  length of vectors
     3.846520000  3.846520000  3.846520000     0.259975250  0.259975250  0.259975250


 
 old parameters found on file WAVECAR:
  energy-cutoff  :      600.00
  volume of cell :       56.91
      direct lattice vectors                 reciprocal lattice vectors
     3.846520000  0.000000000  0.000000000     0.259975250  0.000000000  0.000000000
     0.000000000  3.846520000  0.000000000     0.000000000  0.259975250  0.000000000
     0.000000000  0.000000000  3.846520000     0.000000000  0.000000000  0.259975250

  length of vectors

 
 k-points in units of 2pi/SCALE and weight: KPOINTS generated by PyProcar           
   0.00000000  0.00000000  0.00000000       0.006
   0.01282051  0.00000000  0.00000000       0.006
   0.02564103  0.00000000  0.00000000       0.006
   0.03846154  0.00000000  0.00000000       0.006
   0.05128205  0.00000000  0.00000000       0.006
   0.06410256  0.00000000  0.00000000       0.006
   0.07692308  0.00000000  0.00000000       0.006
   0.08974359  0.00000000  0.00000000       0.006
   0.10256410  0.00000000  0.00000000       0.006
   0.11538462  0.00000000  0.00000000       0.006
   0.12820513  0.00000000  0.00000000       0.006
   0.14102564  0.00000000  0.00000000       0.006
   0.15384615  0.00000000  0.00000000       0.006
   0.16666667  0.00000000  0.00000000       0.006
   0.17948718  0.00000000  0.00000000       0.006
   0.19230769  0.00000000  0.00000000       0.006
   0.20512821  0.00000000  0.00000000       0.006
   0.21794872  0.00000000  0.00000000       0.006
   0.23076923  0.00000000  0.00000000       0.006
   0.24358974  0.00000000  0.00000000       0.006
   0.25641026  0.00000000  0.00000000       0.006
   0.26923077  0.00000000  0.00000000       0.006
   0.28205128  0.00000000  0.00000000       0.006
   0.29487179  0.00000000  0.00000000       0.006
   0.30769231  0.00000000  0.00000000       0.006
   0.32051282  0.00000000  0.00000000       0.006
   0.33333333  0.00000000  0.00000000       0.006
   0.34615385  0.00000000  0.00000000       0.006
   0.35897436  0.00000000  0.00000000       0.006
   0.37179487  0.00000000  0.00000000       0.006
   0.38461538  0.00000000  0.00000000       0.006
   0.39743590  0.00000000  0.00000000       0.006
   0.41025641  0.00000000  0.00000000       0.006
   0.42307692  0.00000000  0.00000000       0.006
   0.43589744  0.00000000  0.00000000       0.006
   0.44871795  0.00000000  0.00000000       0.006
   0.46153846  0.00000000  0.00000000       0.006
   0.47435897  0.00000000  0.00000000       0.006
   0.48717949  0.00000000  0.00000000       0.006
   0.50000000  0.00000000  0.00000000       0.006
   0.50000000  0.00000000  0.00000000       0.006
   0.50000000  0.01282051  0.00000000       0.006
   0.50000000  0.02564103  0.00000000       0.006
   0.50000000  0.03846154  0.00000000       0.006
   0.50000000  0.05128205  0.00000000       0.006
   0.50000000  0.06410256  0.00000000       0.006
   0.50000000  0.07692308  0.00000000       0.006
   0.50000000  0.08974359  0.00000000       0.006
   0.50000000  0.10256410  0.00000000       0.006
   0.50000000  0.11538462  0.00000000       0.006
   0.50000000  0.12820513  0.00000000       0.006
   0.50000000  0.14102564  0.00000000       0.006
   0.50000000  0.15384615  0.00000000       0.006
   0.50000000  0.16666667  0.00000000       0.006
   0.50000000  0.17948718  0.00000000       0.006
   0.50000000  0.19230769  0.00000000       0.006
   0.50000000  0.20512821  0.00000000       0.006
   0.50000000  0.21794872  0.00000000       0.006
   0.50000000  0.23076923  0.00000000       0.006
   0.50000000  0.24358974  0.00000000       0.006
   0.50000000  0.25641026  0.00000000       0.006
   0.50000000  0.26923077  0.00000000       0.006
   0.50000000  0.28205128  0.00000000       0.006
   0.50000000  0.29487179  0.00000000       0.006
   0.50000000  0.30769231  0.00000000       0.006
   0.50000000  0.32051282  0.00000000       0.006
   0.50000000  0.33333333  0.00000000       0.006
   0.50000000  0.34615385  0.00000000       0.006
   0.50000000  0.35897436  0.00000000       0.006
   0.50000000  0.37179487  0.00000000       0.006
   0.50000000  0.38461538  0.00000000       0.006
   0.50000000  0.39743590  0.00000000       0.006
   0.50000000  0.41025641  0.00000000       0.006
   0.50000000  0.42307692  0.00000000       0.006
   0.50000000  0.43589744  0.00000000       0.006
   0.50000000  0.44871795  0.00000000       0.006
   0.50000000  0.46153846  0.00000000       0.006
   0.50000000  0.47435897  0.00000000       0.006
   0.50000000  0.48717949  0.00000000       0.006
   0.50000000  0.50000000  0.00000000       0.006
   0.50000000  0.50000000  0.00000000       0.006
   0.48717949  0.48717949  0.00000000       0.006
   0.47435897  0.47435897  0.00000000       0.006
   0.46153846  0.46153846  0.00000000       0.006
   0.44871795  0.44871795  0.00000000       0.006
   0.43589744  0.43589744  0.00000000       0.006
   0.42307692  0.42307692  0.00000000       0.006
   0.41025641  0.41025641  0.00000000       0.006
   0.39743590  0.39743590  0.00000000       0.006
   0.38461538  0.38461538  0.00000000       0.006
   0.37179487  0.37179487  0.00000000       0.006
   0.35897436  0.35897436  0.00000000       0.006
   0.34615385  0.34615385  0.00000000       0.006
   0.33333333  0.33333333  0.00000000       0.006
   0.32051282  0.32051282  0.00000000       0.006
   0.30769231  0.30769231  0.00000000       0.006
   0.29487179  0.29487179  0.00000000       0.006
   0.28205128  0.28205128  0.00000000       0.006
   0.26923077  0.26923077  0.00000000       0.006
   0.25641026  0.25641026  0.00000000       0.006
   0.24358974  0.24358974  0.00000000       0.006
   0.23076923  0.23076923  0.00000000       0.006
   0.21794872  0.21794872  0.00000000       0.006
   0.20512821  0.20512821  0.00000000       0.006
   0.19230769  0.19230769  0.00000000       0.006
   0.17948718  0.17948718  0.00000000       0.006
   0.16666667  0.16666667  0.00000000       0.006
   0.15384615  0.15384615  0.00000000       0.006
   0.14102564  0.14102564  0.00000000       0.006
   0.12820513  0.12820513  0.00000000       0.006
   0.11538462  0.11538462  0.00000000       0.006
   0.10256410  0.10256410  0.00000000       0.006
   0.08974359  0.08974359  0.00000000       0.006
   0.07692308  0.07692308  0.00000000       0.006
   0.06410256  0.06410256  0.00000000       0.006
   0.05128205  0.05128205  0.00000000       0.006
   0.03846154  0.03846154  0.00000000       0.006
   0.02564103  0.02564103  0.00000000       0.006
   0.01282051  0.01282051  0.00000000       0.006
   0.00000000  0.00000000  0.00000000       0.006
   0.00000000  0.00000000  0.00000000       0.006
   0.01282051  0.01282051  0.01282051       0.006
   0.02564103  0.02564103  0.02564103       0.006
   0.03846154  0.03846154  0.03846154       0.006
   0.05128205  0.05128205  0.05128205       0.006
   0.06410256  0.06410256  0.06410256       0.006
   0.07692308  0.07692308  0.07692308       0.006
   0.08974359  0.08974359  0.08974359       0.006
   0.10256410  0.10256410  0.10256410       0.006
   0.11538462  0.11538462  0.11538462       0.006
   0.12820513  0.12820513  0.12820513       0.006
   0.14102564  0.14102564  0.14102564       0.006
   0.15384615  0.15384615  0.15384615       0.006
   0.16666667  0.16666667  0.16666667       0.006
   0.17948718  0.17948718  0.17948718       0.006
   0.19230769  0.19230769  0.19230769       0.006
   0.20512821  0.20512821  0.20512821       0.006
   0.21794872  0.21794872  0.21794872       0.006
   0.23076923  0.23076923  0.23076923       0.006
   0.24358974  0.24358974  0.24358974       0.006
   0.25641026  0.25641026  0.25641026       0.006
   0.26923077  0.26923077  0.26923077       0.006
   0.28205128  0.28205128  0.28205128       0.006
   0.29487179  0.29487179  0.29487179       0.006
   0.30769231  0.30769231  0.30769231       0.006
   0.32051282  0.32051282  0.32051282       0.006
   0.33333333  0.33333333  0.33333333       0.006
   0.34615385  0.34615385  0.34615385       0.006
   0.35897436  0.35897436  0.35897436       0.006
   0.37179487  0.37179487  0.37179487       0.006
   0.38461538  0.38461538  0.38461538       0.006
   0.39743590  0.39743590  0.39743590       0.006
   0.41025641  0.41025641  0.41025641       0.006
   0.42307692  0.42307692  0.42307692       0.006
   0.43589744  0.43589744  0.43589744       0.006
   0.44871795  0.44871795  0.44871795       0.006
   0.46153846  0.46153846  0.46153846       0.006
   0.47435897  0.47435897  0.47435897       0.006
   0.48717949  0.48717949  0.48717949       0.006
   0.50000000  0.50000000  0.50000000       0.006
 
 k-points in reciprocal lattice and weights: KPOINTS generated by PyProcar           
   0.00000000  0.00000000  0.00000000       0.006
   0.01282051  0.00000000  0.00000000       0.006
   0.02564103  0.00000000  0.00000000       0.006
   0.03846154  0.00000000  0.00000000       0.006
   0.05128205  0.00000000  0.00000000       0.006
   0.06410256  0.00000000  0.00000000       0.006
   0.07692308  0.00000000  0.00000000       0.006
   0.08974359  0.00000000  0.00000000       0.006
   0.10256410  0.00000000  0.00000000       0.006
   0.11538462  0.00000000  0.00000000       0.006
   0.12820513  0.00000000  0.00000000       0.006
   0.14102564  0.00000000  0.00000000       0.006
   0.15384615  0.00000000  0.00000000       0.006
   0.16666667  0.00000000  0.00000000       0.006
   0.17948718  0.00000000  0.00000000       0.006
   0.19230769  0.00000000  0.00000000       0.006
   0.20512821  0.00000000  0.00000000       0.006
   0.21794872  0.00000000  0.00000000       0.006
   0.23076923  0.00000000  0.00000000       0.006
   0.24358974  0.00000000  0.00000000       0.006
   0.25641026  0.00000000  0.00000000       0.006
   0.26923077  0.00000000  0.00000000       0.006
   0.28205128  0.00000000  0.00000000       0.006
   0.29487179  0.00000000  0.00000000       0.006
   0.30769231  0.00000000  0.00000000       0.006
   0.32051282  0.00000000  0.00000000       0.006
   0.33333333  0.00000000  0.00000000       0.006
   0.34615385  0.00000000  0.00000000       0.006
   0.35897436  0.00000000  0.00000000       0.006
   0.37179487  0.00000000  0.00000000       0.006
   0.38461538  0.00000000  0.00000000       0.006
   0.39743590  0.00000000  0.00000000       0.006
   0.41025641  0.00000000  0.00000000       0.006
   0.42307692  0.00000000  0.00000000       0.006
   0.43589744  0.00000000  0.00000000       0.006
   0.44871795  0.00000000  0.00000000       0.006
   0.46153846  0.00000000  0.00000000       0.006
   0.47435897  0.00000000  0.00000000       0.006
   0.48717949  0.00000000  0.00000000       0.006
   0.50000000  0.00000000  0.00000000       0.006
   0.50000000  0.00000000  0.00000000       0.006
   0.50000000  0.01282051  0.00000000       0.006
   0.50000000  0.02564103  0.00000000       0.006
   0.50000000  0.03846154  0.00000000       0.006
   0.50000000  0.05128205  0.00000000       0.006
   0.50000000  0.06410256  0.00000000       0.006
   0.50000000  0.07692308  0.00000000       0.006
   0.50000000  0.08974359  0.00000000       0.006
   0.50000000  0.10256410  0.00000000       0.006
   0.50000000  0.11538462  0.00000000       0.006
   0.50000000  0.12820513  0.00000000       0.006
   0.50000000  0.14102564  0.00000000       0.006
   0.50000000  0.15384615  0.00000000       0.006
   0.50000000  0.16666667  0.00000000       0.006
   0.50000000  0.17948718  0.00000000       0.006
   0.50000000  0.19230769  0.00000000       0.006
   0.50000000  0.20512821  0.00000000       0.006
   0.50000000  0.21794872  0.00000000       0.006
   0.50000000  0.23076923  0.00000000       0.006
   0.50000000  0.24358974  0.00000000       0.006
   0.50000000  0.25641026  0.00000000       0.006
   0.50000000  0.26923077  0.00000000       0.006
   0.50000000  0.28205128  0.00000000       0.006
   0.50000000  0.29487179  0.00000000       0.006
   0.50000000  0.30769231  0.00000000       0.006
   0.50000000  0.32051282  0.00000000       0.006
   0.50000000  0.33333333  0.00000000       0.006
   0.50000000  0.34615385  0.00000000       0.006
   0.50000000  0.35897436  0.00000000       0.006
   0.50000000  0.37179487  0.00000000       0.006
   0.50000000  0.38461538  0.00000000       0.006
   0.50000000  0.39743590  0.00000000       0.006
   0.50000000  0.41025641  0.00000000       0.006
   0.50000000  0.42307692  0.00000000       0.006
   0.50000000  0.43589744  0.00000000       0.006
   0.50000000  0.44871795  0.00000000       0.006
   0.50000000  0.46153846  0.00000000       0.006
   0.50000000  0.47435897  0.00000000       0.006
   0.50000000  0.48717949  0.00000000       0.006
   0.50000000  0.50000000  0.00000000       0.006
   0.50000000  0.50000000  0.00000000       0.006
   0.48717949  0.48717949  0.00000000       0.006
   0.47435897  0.47435897  0.00000000       0.006
   0.46153846  0.46153846  0.00000000       0.006
   0.44871795  0.44871795  0.00000000       0.006
   0.43589744  0.43589744  0.00000000       0.006
   0.42307692  0.42307692  0.00000000       0.006
   0.41025641  0.41025641  0.00000000       0.006
   0.39743590  0.39743590  0.00000000       0.006
   0.38461538  0.38461538  0.00000000       0.006
   0.37179487  0.37179487  0.00000000       0.006
   0.35897436  0.35897436  0.00000000       0.006
   0.34615385  0.34615385  0.00000000       0.006
   0.33333333  0.33333333  0.00000000       0.006
   0.32051282  0.32051282  0.00000000       0.006
   0.30769231  0.30769231  0.00000000       0.006
   0.29487179  0.29487179  0.00000000       0.006
   0.28205128  0.28205128  0.00000000       0.006
   0.26923077  0.26923077  0.00000000       0.006
   0.25641026  0.25641026  0.00000000       0.006
   0.24358974  0.24358974  0.00000000       0.006
   0.23076923  0.23076923  0.00000000       0.006
   0.21794872  0.21794872  0.00000000       0.006
   0.20512821  0.20512821  0.00000000       0.006
   0.19230769  0.19230769  0.00000000       0.006
   0.17948718  0.17948718  0.00000000       0.006
   0.16666667  0.16666667  0.00000000       0.006
   0.15384615  0.15384615  0.00000000       0.006
   0.14102564  0.14102564  0.00000000       0.006
   0.12820513  0.12820513  0.00000000       0.006
   0.11538462  0.11538462  0.00000000       0.006
   0.10256410  0.10256410  0.00000000       0.006
   0.08974359  0.08974359  0.00000000       0.006
   0.07692308  0.07692308  0.00000000       0.006
   0.06410256  0.06410256  0.00000000       0.006
   0.05128205  0.05128205  0.00000000       0.006
   0.03846154  0.03846154  0.00000000       0.006
   0.02564103  0.02564103  0.00000000       0.006
   0.01282051  0.01282051  0.00000000       0.006
   0.00000000  0.00000000  0.00000000       0.006
   0.00000000  0.00000000  0.00000000       0.006
   0.01282051  0.01282051  0.01282051       0.006
   0.02564103  0.02564103  0.02564103       0.006
   0.03846154  0.03846154  0.03846154       0.006
   0.05128205  0.05128205  0.05128205       0.006
   0.06410256  0.06410256  0.06410256       0.006
   0.07692308  0.07692308  0.07692308       0.006
   0.08974359  0.08974359  0.08974359       0.006
   0.10256410  0.10256410  0.10256410       0.006
   0.11538462  0.11538462  0.11538462       0.006
   0.12820513  0.12820513  0.12820513       0.006
   0.14102564  0.14102564  0.14102564       0.006
   0.15384615  0.15384615  0.15384615       0.006
   0.16666667  0.16666667  0.16666667       0.006
   0.17948718  0.17948718  0.17948718       0.006
   0.19230769  0.19230769  0.19230769       0.006
   0.20512821  0.20512821  0.20512821       0.006
   0.21794872  0.21794872  0.21794872       0.006
   0.23076923  0.23076923  0.23076923       0.006
   0.24358974  0.24358974  0.24358974       0.006
   0.25641026  0.25641026  0.25641026       0.006
   0.26923077  0.26923077  0.26923077       0.006
   0.28205128  0.28205128  0.28205128       0.006
   0.29487179  0.29487179  0.29487179       0.006
   0.30769231  0.30769231  0.30769231       0.006
   0.32051282  0.32051282  0.32051282       0.006
   0.33333333  0.33333333  0.33333333       0.006
   0.34615385  0.34615385  0.34615385       0.006
   0.35897436  0.35897436  0.35897436       0.006
   0.37179487  0.37179487  0.37179487       0.006
   0.38461538  0.38461538  0.38461538       0.006
   0.39743590  0.39743590  0.39743590       0.006
   0.41025641  0.41025641  0.41025641       0.006
   0.42307692  0.42307692  0.42307692       0.006
   0.43589744  0.43589744  0.43589744       0.006
   0.44871795  0.44871795  0.44871795       0.006
   0.46153846  0.46153846  0.46153846       0.006
   0.47435897  0.47435897  0.47435897       0.006
   0.48717949  0.48717949  0.48717949       0.006
   0.50000000  0.50000000  0.50000000       0.006
 
 position of ions in fractional coordinates (direct lattice) 
   0.00000000  0.00000000  0.00000000
   0.50000000  0.50000000  0.50000000
   0.50000000  0.50000000  0.00000000
   0.50000000  0.00000000  0.50000000
   0.00000000  0.50000000  0.50000000
 
 position of ions in cartesian coordinates  (Angst):
   0.00000000  0.00000000  0.00000000
   1.92326000  1.92326000  1.92326000
   1.92326000  1.92326000  0.00000000
   1.92326000  0.00000000  1.92326000
   0.00000000  1.92326000  1.92326000
 
 Euler angles ALPHA=     0.0000000  BETA=     0.0000000

 transformation matrix from SAXIS to cartesian coordinates
 ---------------------------------------------------------
     1.0000000 m_x     0.0000000 m_y     0.0000000 m_z
     0.0000000 m_x     1.0000000 m_y     0.0000000 m_z
     0.0000000 m_x     0.0000000 m_y     1.0000000 m_z

 transformation matrix from cartesian coordinates to SAXIS
 ---------------------------------------------------------
     1.0000000 m_x     0.0000000 m_y     0.0000000 m_z
     0.0000000 m_x     1.0000000 m_y     0.0000000 m_z
     0.0000000 m_x     0.0000000 m_y     1.0000000 m_z




--------------------------------------------------------------------------------------------------------


 k-point  1 :   0.0000 0.0000 0.0000  plane waves:    3870
 k-point  2 :   0.0128 0.0000 0.0000  plane waves:    3798
 k-point  3 :   0.0256 0.0000 0.0000  plane waves:    3798
 k-point  4 :   0.0385 0.0000 0.0000  plane waves:    3798
 k-point  5 :   0.0513 0.0000 0.0000  plane waves:    3798
 k-point  6 :   0.0641 0.0000 0.0000  plane waves:    3798
 k-point  7 :   0.0769 0.0000 0.0000  plane waves:    3790
 k-point  8 :   0.0897 0.0000 0.0000  plane waves:    3790
 k-point  9 :   0.1026 0.0000 0.0000  plane waves:    3790
 k-point 10 :   0.1154 0.0000 0.0000  plane waves:    3790
 k-point 11 :   0.1282 0.0000 0.0000  plane waves:    3790
 k-point 12 :   0.1410 0.0000 0.0000  plane waves:    3790
 k-point 13 :   0.1538 0.0000 0.0000  plane waves:    3782
 k-point 14 :   0.1667 0.0000 0.0000  plane waves:    3774
 k-point 15 :   0.1795 0.0000 0.0000  plane waves:    3798
 k-point 16 :   0.1923 0.0000 0.0000  plane waves:    3798
 k-point 17 :   0.2051 0.0000 0.0000  plane waves:    3798
 k-point 18 :   0.2179 0.0000 0.0000  plane waves:    3814
 k-point 19 :   0.2308 0.0000 0.0000  plane waves:    3814
 k-point 20 :   0.2436 0.0000 0.0000  plane waves:    3814
 k-point 21 :   0.2564 0.0000 0.0000  plane waves:    3814
 k-point 22 :   0.2692 0.0000 0.0000  plane waves:    3814
 k-point 23 :   0.2821 0.0000 0.0000  plane waves:    3814
 k-point 24 :   0.2949 0.0000 0.0000  plane waves:    3814
 k-point 25 :   0.3077 0.0000 0.0000  plane waves:    3830
 k-point 26 :   0.3205 0.0000 0.0000  plane waves:    3832
 k-point 27 :   0.3333 0.0000 0.0000  plane waves:    3832
 k-point 28 :   0.3462 0.0000 0.0000  plane waves:    3832
 k-point 29 :   0.3590 0.0000 0.0000  plane waves:    3832
 k-point 30 :   0.3718 0.0000 0.0000  plane waves:    3816
 k-point 31 :   0.3846 0.0000 0.0000  plane waves:    3824
 k-point 32 :   0.3974 0.0000 0.0000  plane waves:    3824
 k-point 33 :   0.4103 0.0000 0.0000  plane waves:    3816
 k-point 34 :   0.4231 0.0000 0.0000  plane waves:    3808
 k-point 35 :   0.4359 0.0000 0.0000  plane waves:    3808
 k-point 36 :   0.4487 0.0000 0.0000  plane waves:    3816
 k-point 37 :   0.4615 0.0000 0.0000  plane waves:    3808
 k-point 38 :   0.4744 0.0000 0.0000  plane waves:    3808
 k-point 39 :   0.4872 0.0000 0.0000  plane waves:    3776
 k-point 40 :   0.5000 0.0000 0.0000  plane waves:    3776
 k-point 41 :   0.5000 0.0000 0.0000  plane waves:    3776
 k-point 42 :   0.5000 0.0128 0.0000  plane waves:    3776
 k-point 43 :   0.5000 0.0256 0.0000  plane waves:    3792
 k-point 44 :   0.5000 0.0385 0.0000  plane waves:    3800
 k-point 45 :   0.5000 0.0513 0.0000  plane waves:    3800
 k-point 46 :   0.5000 0.0641 0.0000  plane waves:    3800
 k-point 47 :   0.5000 0.0769 0.0000  plane waves:    3800
 k-point 48 :   0.5000 0.0897 0.0000  plane waves:    3808
 k-point 49 :   0.5000 0.1026 0.0000  plane waves:    3796
 k-point 50 :   0.5000 0.1154 0.0000  plane waves:    3804
 k-point 51 :   0.5000 0.1282 0.0000  plane waves:    3804
 k-point 52 :   0.5000 0.1410 0.0000  plane waves:    3804
 k-point 53 :   0.5000 0.1538 0.0000  plane waves:    3788
 k-point 54 :   0.5000 0.1667 0.0000  plane waves:    3792
 k-point 55 :   0.5000 0.1795 0.0000  plane waves:    3792
 k-point 56 :   0.5000 0.1923 0.0000  plane waves:    3800
 k-point 57 :   0.5000 0.2051 0.0000  plane waves:    3792
 k-point 58 :   0.5000 0.2179 0.0000  plane waves:    3808
 k-point 59 :   0.5000 0.2308 0.0000  plane waves:    3820
 k-point 60 :   0.5000 0.2436 0.0000  plane waves:    3828
 k-point 61 :   0.5000 0.2564 0.0000  plane waves:    3828
 k-point 62 :   0.5000 0.2692 0.0000  plane waves:    3816
 k-point 63 :   0.5000 0.2821 0.0000  plane waves:    3792
 k-point 64 :   0.5000 0.2949 0.0000  plane waves:    3800
 k-point 65 :   0.5000 0.3077 0.0000  plane waves:    3800
 k-point 66 :   0.5000 0.3205 0.0000  plane waves:    3800
 k-point 67 :   0.5000 0.3333 0.0000  plane waves:    3792
 k-point 68 :   0.5000 0.3462 0.0000  plane waves:    3816
 k-point 69 :   0.5000 0.3590 0.0000  plane waves:    3816
 k-point 70 :   0.5000 0.3718 0.0000  plane waves:    3820
 k-point 71 :   0.5000 0.3846 0.0000  plane waves:    3828
 k-point 72 :   0.5000 0.3974 0.0000  plane waves:    3820
 k-point 73 :   0.5000 0.4103 0.0000  plane waves:    3820
 k-point 74 :   0.5000 0.4231 0.0000  plane waves:    3820
 k-point 75 :   0.5000 0.4359 0.0000  plane waves:    3836
 k-point 76 :   0.5000 0.4487 0.0000  plane waves:    3836
 k-point 77 :   0.5000 0.4615 0.0000  plane waves:    3852
 k-point 78 :   0.5000 0.4744 0.0000  plane waves:    3848
 k-point 79 :   0.5000 0.4872 0.0000  plane waves:    3848
 k-point 80 :   0.5000 0.5000 0.0000  plane waves:    3848
 k-point 81 :   0.5000 0.5000 0.0000  plane waves:    3848
 k-point 82 :   0.4872 0.4872 0.0000  plane waves:    3848
 k-point 83 :   0.4744 0.4744 0.0000  plane waves:    3856
 k-point 84 :   0.4615 0.4615 0.0000  plane waves:    3836
 k-point 85 :   0.4487 0.4487 0.0000  plane waves:    3824
 k-point 86 :   0.4359 0.4359 0.0000  plane waves:    3824
 k-point 87 :   0.4231 0.4231 0.0000  plane waves:    3826
 k-point 88 :   0.4103 0.4103 0.0000  plane waves:    3802
 k-point 89 :   0.3974 0.3974 0.0000  plane waves:    3802
 k-point 90 :   0.3846 0.3846 0.0000  plane waves:    3802
 k-point 91 :   0.3718 0.3718 0.0000  plane waves:    3794
 k-point 92 :   0.3590 0.3590 0.0000  plane waves:    3790
 k-point 93 :   0.3462 0.3462 0.0000  plane waves:    3798
 k-point 94 :   0.3333 0.3333 0.0000  plane waves:    3806
 k-point 95 :   0.3205 0.3205 0.0000  plane waves:    3798
 k-point 96 :   0.3077 0.3077 0.0000  plane waves:    3774
 k-point 97 :   0.2949 0.2949 0.0000  plane waves:    3782
 k-point 98 :   0.2821 0.2821 0.0000  plane waves:    3790
 k-point 99 :   0.2692 0.2692 0.0000  plane waves:    3794
 k-point ** :   0.2564 0.2564 0.0000  plane waves:    3786
 k-point ** :   0.2436 0.2436 0.0000  plane waves:    3790
 k-point ** :   0.2308 0.2308 0.0000  plane waves:    3802
 k-point ** :   0.2179 0.2179 0.0000  plane waves:    3794
 k-point ** :   0.2051 0.2051 0.0000  plane waves:    3786
 k-point ** :   0.1923 0.1923 0.0000  plane waves:    3794
 k-point ** :   0.1795 0.1795 0.0000  plane waves:    3802
 k-point ** :   0.1667 0.1667 0.0000  plane waves:    3786
 k-point ** :   0.1538 0.1538 0.0000  plane waves:    3794
 k-point ** :   0.1410 0.1410 0.0000  plane waves:    3786
 k-point ** :   0.1282 0.1282 0.0000  plane waves:    3778
 k-point ** :   0.1154 0.1154 0.0000  plane waves:    3786
 k-point ** :   0.1026 0.1026 0.0000  plane waves:    3794
 k-point ** :   0.0897 0.0897 0.0000  plane waves:    3790
 k-point ** :   0.0769 0.0769 0.0000  plane waves:    3790
 k-point ** :   0.0641 0.0641 0.0000  plane waves:    3798
 k-point ** :   0.0513 0.0513 0.0000  plane waves:    3798
 k-point ** :   0.0385 0.0385 0.0000  plane waves:    3802
 k-point ** :   0.0256 0.0256 0.0000  plane waves:    3802
 k-point ** :   0.0128 0.0128 0.0000  plane waves:    3802
 k-point ** :   0.0000 0.0000 0.0000  plane waves:    3870
 k-point ** :   0.0000 0.0000 0.0000  plane waves:    3870
 k-point ** :   0.0128 0.0128 0.0128  plane waves:    3798
 k-point ** :   0.0256 0.0256 0.0256  plane waves:    3798
 k-point ** :   0.0385 0.0385 0.0385  plane waves:    3798
 k-point ** :   0.0513 0.0513 0.0513  plane waves:    3786
 k-point ** :   0.0641 0.0641 0.0641  plane waves:    3786
 k-point ** :   0.0769 0.0769 0.0769  plane waves:    3798
 k-point ** :   0.0897 0.0897 0.0897  plane waves:    3792
 k-point ** :   0.1026 0.1026 0.1026  plane waves:    3798
 k-point ** :   0.1154 0.1154 0.1154  plane waves:    3798
 k-point ** :   0.1282 0.1282 0.1282  plane waves:    3798
 k-point ** :   0.1410 0.1410 0.1410  plane waves:    3786
 k-point ** :   0.1538 0.1538 0.1538  plane waves:    3810
 k-point ** :   0.1667 0.1667 0.1667  plane waves:    3810
 k-point ** :   0.1795 0.1795 0.1795  plane waves:    3810
 k-point ** :   0.1923 0.1923 0.1923  plane waves:    3786
 k-point ** :   0.2051 0.2051 0.2051  plane waves:    3786
 k-point ** :   0.2179 0.2179 0.2179  plane waves:    3798
 k-point ** :   0.2308 0.2308 0.2308  plane waves:    3798
 k-point ** :   0.2436 0.2436 0.2436  plane waves:    3798
 k-point ** :   0.2564 0.2564 0.2564  plane waves:    3804
 k-point ** :   0.2692 0.2692 0.2692  plane waves:    3804
 k-point ** :   0.2821 0.2821 0.2821  plane waves:    3804
 k-point ** :   0.2949 0.2949 0.2949  plane waves:    3804
 k-point ** :   0.3077 0.3077 0.3077  plane waves:    3798
 k-point ** :   0.3205 0.3205 0.3205  plane waves:    3780
 k-point ** :   0.3333 0.3333 0.3333  plane waves:    3792
 k-point ** :   0.3462 0.3462 0.3462  plane waves:    3768
 k-point ** :   0.3590 0.3590 0.3590  plane waves:    3786
 k-point ** :   0.3718 0.3718 0.3718  plane waves:    3792
 k-point ** :   0.3846 0.3846 0.3846  plane waves:    3768
 k-point ** :   0.3974 0.3974 0.3974  plane waves:    3768
 k-point ** :   0.4103 0.4103 0.4103  plane waves:    3792
 k-point ** :   0.4231 0.4231 0.4231  plane waves:    3780
 k-point ** :   0.4359 0.4359 0.4359  plane waves:    3760
 k-point ** :   0.4487 0.4487 0.4487  plane waves:    3760
 k-point ** :   0.4615 0.4615 0.4615  plane waves:    3760
 k-point ** :   0.4744 0.4744 0.4744  plane waves:    3760
 k-point ** :   0.4872 0.4872 0.4872  plane waves:    3808
 k-point ** :   0.5000 0.5000 0.5000  plane waves:    3808

 maximum and minimum number of plane-waves per node :      3870     3760

 maximum number of plane-waves:      3870
 maximum index in each direction: 
   IXMAX=    7   IYMAX=    7   IZMAX=    7
   IXMIN=   -8   IYMIN=   -8   IZMIN=   -8


 serial   3D FFT for wavefunctions
 parallel 3D FFT for charge:
    minimum data exchange during FFTs selected (reduces bandwidth)


 total amount of memory used by VASP MPI-rank0   280768. kBytes
=======================================================================

   base      :      30000. kBytes
   nonl-proj :     133902. kBytes
   fftplans  :       6744. kBytes
   grid      :       7667. kBytes
   one-center:        311. kBytes
   wavefun   :     102144. kBytes
 
     INWAV:  cpu time    1.2556: real time    1.2557
 initial charge density was supplied:
 number of electron      33.0000001 magnetization       0.0004484     -0.0000741      0.0077161
 keeping initial charge density in first step


--------------------------------------------------------------------------------------------------------


 Maximum index for augmentation-charges        24360 (set IRDMAX)


--------------------------------------------------------------------------------------------------------


 First call to EWALD:  gamma=   0.461
 Maximum number of real-space cells 3x 3x 3
 Maximum number of reciprocal cells 3x 3x 3

    FEWALD:  cpu time    0.0017: real time    0.0017


--------------------------------------- Iteration      1(   1)  ---------------------------------------


    POTLOK:  cpu time    0.0609: real time    0.0611
    SETDIJ:  cpu time    0.0859: real time    0.0859
    EDDIAG:  cpu time    2.2771: real time    2.2775
  RMM-DIIS:  cpu time   13.1549: real time   13.1566
    ORTHCH:  cpu time    0.3925: real time    0.3925
       DOS:  cpu time    0.0058: real time    0.0058
    --------------------------------------------
      LOOP:  cpu time   15.9771: real time   15.9794

 eigenvalue-minimisations  : 24737
 total energy-change (2. order) :-0.2822191E+02  (-0.6425462E+02)
 number of electron      33.0000001 magnetization       0.0004484     -0.0000741      0.0077161
 augmentation part       33.0000001 magnetization       0.0004484     -0.0000741      0.0077161

 Free energy of the ion-electron system (eV)
  ---------------------------------------------------
  alpha Z        PSCENC =       180.95685896
  Ewald energy   TEWEN  =     -2047.90029510
  -Hartree energ DENC   =      -423.66160937
  -exchange      EXHF   =         0.00000000
  -V(xc)+E(xc)   XCENC  =        77.78866555
  PAW double counting   =      3876.39837610    -3825.12620939
  entropy T*S    EENTRO =        -0.03805008
  eigenvalues    EBANDS =      -173.29231960
  atomic energy  EATOM  =      2306.65267270
  Solvation  Ediel_sol  =         0.00000000
  ---------------------------------------------------
  free energy    TOTEN  =       -28.22191025 eV

  energy without entropy =      -28.18386017  energy(sigma->0) =      -28.20288521


--------------------------------------------------------------------------------------------------------




--------------------------------------- Iteration      1(   2)  ---------------------------------------


    EDDIAG:  cpu time    2.2572: real time    2.2575
  RMM-DIIS:  cpu time   12.4509: real time   12.4524
    ORTHCH:  cpu time    0.4145: real time    0.4147
       DOS:  cpu time    0.0058: real time    0.0058
    --------------------------------------------
      LOOP:  cpu time   15.1285: real time   15.1304

 eigenvalue-minimisations  : 22793
 total energy-change (2. order) :-0.8049744E+01  (-0.4622950E+01)
 number of electron      33.0000001 magnetization       0.0004484     -0.0000741      0.0077161
 augmentation part       33.0000001 magnetization       0.0004484     -0.0000741      0.0077161

 Free energy of the ion-electron system (eV)
  ---------------------------------------------------
  alpha Z        PSCENC =       180.95685896
  Ewald energy   TEWEN  =     -2047.90029510
  -Hartree energ DENC   =      -423.66160937
  -exchange      EXHF   =         0.00000000
  -V(xc)+E(xc)   XCENC  =        77.78866555
  PAW double counting   =      3876.39837610    -3825.12620939
  entropy T*S    EENTRO =        -0.05157073
  eigenvalues    EBANDS =      -181.32854282
  atomic energy  EATOM  =      2306.65267270
  Solvation  Ediel_sol  =         0.00000000
  ---------------------------------------------------
  free energy    TOTEN  =       -36.27165412 eV

  energy without entropy =      -36.22008339  energy(sigma->0) =      -36.24586875


--------------------------------------------------------------------------------------------------------




--------------------------------------- Iteration      1(   3)  ---------------------------------------


    EDDIAG:  cpu time    2.3228: real time    2.3231
  RMM-DIIS:  cpu time   14.2000: real time   14.2017
    ORTHCH:  cpu time    0.3909: real time    0.3909
       DOS:  cpu time    0.0057: real time    0.0057
    --------------------------------------------
      LOOP:  cpu time   16.9194: real time   16.9214

 eigenvalue-minimisations  : 26932
 total energy-change (2. order) :-0.8232723E+00  (-0.7389271E+00)
 number of electron      33.0000001 magnetization       0.0004484     -0.0000741      0.0077161
 augmentation part       33.0000001 magnetization       0.0004484     -0.0000741      0.0077161

 Free energy of the ion-electron system (eV)
  ---------------------------------------------------
  alpha Z        PSCENC =       180.95685896
  Ewald energy   TEWEN  =     -2047.90029510
  -Hartree energ DENC   =      -423.66160937
  -exchange      EXHF   =         0.00000000
  -V(xc)+E(xc)   XCENC  =        77.78866555
  PAW double counting   =      3876.39837610    -3825.12620939
  entropy T*S    EENTRO =        -0.05666441
  eigenvalues    EBANDS =      -182.14672141
  atomic energy  EATOM  =      2306.65267270
  Solvation  Ediel_sol  =         0.00000000
  ---------------------------------------------------
  free energy    TOTEN  =       -37.09492638 eV

  energy without entropy =      -37.03826197  energy(sigma->0) =      -37.06659418


--------------------------------------------------------------------------------------------------------




--------------------------------------- Iteration      1(   4)  ---------------------------------------


    EDDIAG:  cpu time    2.2329: real time    2.2332
  RMM-DIIS:  cpu time   15.0337: real time   15.0355
    ORTHCH:  cpu time    0.3845: real time    0.3845
       DOS:  cpu time    0.0058: real time    0.0058
    --------------------------------------------
      LOOP:  cpu time   17.6569: real time   17.6591

 eigenvalue-minimisations  : 28883
 total energy-change (2. order) :-0.3318390E+00  (-0.3090798E+00)
 number of electron      33.0000001 magnetization       0.0004484     -0.0000741      0.0077161
 augmentation part       33.0000001 magnetization       0.0004484     -0.0000741      0.0077161

 Free energy of the ion-electron system (eV)
  ---------------------------------------------------
  alpha Z        PSCENC =       180.95685896
  Ewald energy   TEWEN  =     -2047.90029510
  -Hartree energ DENC   =      -423.66160937
  -exchange      EXHF   =         0.00000000
  -V(xc)+E(xc)   XCENC  =        77.78866555
  PAW double counting   =      3876.39837610    -3825.12620939
  entropy T*S    EENTRO =        -0.05684668
  eigenvalues    EBANDS =      -182.47837810
  atomic energy  EATOM  =      2306.65267270
  Solvation  Ediel_sol  =         0.00000000
  ---------------------------------------------------
  free energy    TOTEN  =       -37.42676534 eV

  energy without entropy =      -37.36991866  energy(sigma->0) =      -37.39834200


--------------------------------------------------------------------------------------------------------




--------------------------------------- Iteration      1(   5)  ---------------------------------------


    EDDIAG:  cpu time    2.2308: real time    2.2310
  RMM-DIIS:  cpu time   15.3282: real time   15.3301
    ORTHCH:  cpu time    0.3796: real time    0.3796
       DOS:  cpu time    0.0057: real time    0.0057
 


 total charge     
 
# of ion       s       p       d       tot
------------------------------------------
    1        1.994   5.829   0.190   8.013
    2        0.472   1.280   3.226   4.977
    3        1.525   3.797   0.000   5.322
    4        1.547   3.555   0.000   5.102
    5        1.565   3.338   0.000   4.902
--------------------------------------------------
tot          7.102  17.798   3.416  28.316
 


 magnetization (x)
 
# of ion       s       p       d       tot
------------------------------------------
    1        0.000  -0.000   0.000   0.001
    2       -0.000   0.000   0.001   0.001
    3       -0.000   0.001   0.000   0.001
    4        0.000  -0.002   0.000  -0.002
    5        0.000   0.002   0.000   0.002
--------------------------------------------------
tot          0.000   0.001   0.001   0.003
 


 magnetization (y)
 
# of ion       s       p       d       tot
------------------------------------------
    1       -0.000  -0.000  -0.000  -0.000
    2       -0.000  -0.000   0.000   0.000
    3        0.000  -0.003   0.000  -0.003
    4       -0.000  -0.000   0.000  -0.000
    5       -0.000  -0.002   0.000  -0.002
--------------------------------------------------
tot         -0.000  -0.005   0.000  -0.005
 


 magnetization (z)
 
# of ion       s       p       d       tot
------------------------------------------
    1        0.000  -0.000   0.000   0.000
    2       -0.000   0.000   0.014   0.014
    3       -0.000   0.001   0.000   0.001
    4        0.000   0.001   0.000   0.001
    5        0.000  -0.001   0.000  -0.001
--------------------------------------------------
tot          0.000   0.001   0.014   0.015
 
    --------------------------------------------
      LOOP:  cpu time   17.9852: real time   17.9874

 eigenvalue-minimisations  : 29429
 total energy-change (2. order) :-0.1791459E+00  (-0.1486960E+00)
 number of electron      33.0000001 magnetization       0.0004484     -0.0000741      0.0077161
 augmentation part       33.0000001 magnetization       0.0004484     -0.0000741      0.0077161

 Free energy of the ion-electron system (eV)
  ---------------------------------------------------
  alpha Z        PSCENC =       180.95685896
  Ewald energy   TEWEN  =     -2047.90029510
  -Hartree energ DENC   =      -423.66160937
  -exchange      EXHF   =         0.00000000
  -V(xc)+E(xc)   XCENC  =        77.78866555
  PAW double counting   =      3876.39837610    -3825.12620939
  entropy T*S    EENTRO =        -0.05746442
  eigenvalues    EBANDS =      -182.65690622
  atomic energy  EATOM  =      2306.65267270
  Solvation  Ediel_sol  =         0.00000000
  ---------------------------------------------------
  free energy    TOTEN  =       -37.60591121 eV

  energy without entropy =      -37.54844678  energy(sigma->0) =      -37.57717900


--------------------------------------------------------------------------------------------------------




--------------------------------------- Iteration      1(   6)  ---------------------------------------


    EDDIAG:  cpu time    2.2729: real time    2.2732
  RMM-DIIS:  cpu time   15.0046: real time   15.0064
    ORTHCH:  cpu time    0.3940: real time    0.3941
       DOS:  cpu time    0.0058: real time    0.0058
    --------------------------------------------
      LOOP:  cpu time   17.6365: real time   17.6387

 eigenvalue-minimisations  : 28536
 total energy-change (2. order) :-0.8461318E-01  (-0.7003923E-01)
 number of electron      33.0000001 magnetization       0.0004484     -0.0000741      0.0077161
 augmentation part       33.0000001 magnetization       0.0004484     -0.0000741      0.0077161

 Free energy of the ion-electron system (eV)
  ---------------------------------------------------
  alpha Z        PSCENC =       180.95685896
  Ewald energy   TEWEN  =     -2047.90029510
  -Hartree energ DENC   =      -423.66160937
  -exchange      EXHF   =         0.00000000
  -V(xc)+E(xc)   XCENC  =        77.78866555
  PAW double counting   =      3876.39837610    -3825.12620939
  entropy T*S    EENTRO =        -0.05778876
  eigenvalues    EBANDS =      -182.74119506
  atomic energy  EATOM  =      2306.65267270
  Solvation  Ediel_sol  =         0.00000000
  ---------------------------------------------------
  free energy    TOTEN  =       -37.69052439 eV

  energy without entropy =      -37.63273563  energy(sigma->0) =      -37.66163001


--------------------------------------------------------------------------------------------------------




--------------------------------------- Iteration      1(   7)  ---------------------------------------


    EDDIAG:  cpu time    2.3162: real time    2.3165
  RMM-DIIS:  cpu time   14.4483: real time   14.4501
    ORTHCH:  cpu time    0.3869: real time    0.3869
       DOS:  cpu time    0.0056: real time    0.0056
    --------------------------------------------
      LOOP:  cpu time   17.1570: real time   17.1590

 eigenvalue-minimisations  : 27169
 total energy-change (2. order) :-0.3844947E-01  (-0.3776078E-01)
 number of electron      33.0000001 magnetization       0.0004484     -0.0000741      0.0077161
 augmentation part       33.0000001 magnetization       0.0004484     -0.0000741      0.0077161

 Free energy of the ion-electron system (eV)
  ---------------------------------------------------
  alpha Z        PSCENC =       180.95685896
  Ewald energy   TEWEN  =     -2047.90029510
  -Hartree energ DENC   =      -423.66160937
  -exchange      EXHF   =         0.00000000
  -V(xc)+E(xc)   XCENC  =        77.78866555
  PAW double counting   =      3876.39837610    -3825.12620939
  entropy T*S    EENTRO =        -0.05779023
  eigenvalues    EBANDS =      -182.77964306
  atomic energy  EATOM  =      2306.65267270
  Solvation  Ediel_sol  =         0.00000000
  ---------------------------------------------------
  free energy    TOTEN  =       -37.72897386 eV

  energy without entropy =      -37.67118362  energy(sigma->0) =      -37.70007874


--------------------------------------------------------------------------------------------------------




--------------------------------------- Iteration      1(   8)  ---------------------------------------


    EDDIAG:  cpu time    2.2317: real time    2.2320
  RMM-DIIS:  cpu time   13.9949: real time   13.9966
    ORTHCH:  cpu time    0.3769: real time    0.3770
       DOS:  cpu time    0.0056: real time    0.0056
    --------------------------------------------
      LOOP:  cpu time   16.6091: real time   16.6112

 eigenvalue-minimisations  : 26015
 total energy-change (2. order) :-0.2310453E-01  (-0.2148215E-01)
 number of electron      33.0000001 magnetization       0.0004484     -0.0000741      0.0077161
 augmentation part       33.0000001 magnetization       0.0004484     -0.0000741      0.0077161

 Free energy of the ion-electron system (eV)
  ---------------------------------------------------
  alpha Z        PSCENC =       180.95685896
  Ewald energy   TEWEN  =     -2047.90029510
  -Hartree energ DENC   =      -423.66160937
  -exchange      EXHF   =         0.00000000
  -V(xc)+E(xc)   XCENC  =        77.78866555
  PAW double counting   =      3876.39837610    -3825.12620939
  entropy T*S    EENTRO =        -0.05779102
  eigenvalues    EBANDS =      -182.80274680
  atomic energy  EATOM  =      2306.65267270
  Solvation  Ediel_sol  =         0.00000000
  ---------------------------------------------------
  free energy    TOTEN  =       -37.75207839 eV

  energy without entropy =      -37.69428737  energy(sigma->0) =      -37.72318288


--------------------------------------------------------------------------------------------------------




--------------------------------------- Iteration      1(   9)  ---------------------------------------


    EDDIAG:  cpu time    2.2320: real time    2.2323
WARNING in EDDRMM: call to ZHEGV failed, returncode =   8  4      8
  RMM-DIIS:  cpu time   13.5532: real time   13.5547
    ORTHCH:  cpu time    0.3944: real time    0.3945
       DOS:  cpu time    0.0057: real time    0.0057
    --------------------------------------------
      LOOP:  cpu time   16.1853: real time   16.1873

 eigenvalue-minimisations  : 24931
 total energy-change (2. order) :-0.1523099E-01  (-0.1409480E-01)
 number of electron      33.0000001 magnetization       0.0004484     -0.0000741      0.0077161
 augmentation part       33.0000001 magnetization       0.0004484     -0.0000741      0.0077161

 Free energy of the ion-electron system (eV)
  ---------------------------------------------------
  alpha Z        PSCENC =       180.95685896
  Ewald energy   TEWEN  =     -2047.90029510
  -Hartree energ DENC   =      -423.66160937
  -exchange      EXHF   =         0.00000000
  -V(xc)+E(xc)   XCENC  =        77.78866555
  PAW double counting   =      3876.39837610    -3825.12620939
  entropy T*S    EENTRO =        -0.05813458
  eigenvalues    EBANDS =      -182.81763423
  atomic energy  EATOM  =      2306.65267270
  Solvation  Ediel_sol  =         0.00000000
  ---------------------------------------------------
  free energy    TOTEN  =       -37.76730938 eV

  energy without entropy =      -37.70917480  energy(sigma->0) =      -37.73824209


--------------------------------------------------------------------------------------------------------




--------------------------------------- Iteration      1(  10)  ---------------------------------------


    EDDIAG:  cpu time    2.2493: real time    2.2496
  RMM-DIIS:  cpu time   13.0234: real time   13.0249
    ORTHCH:  cpu time    0.3837: real time    0.3837
       DOS:  cpu time    0.0057: real time    0.0057
 


 total charge     
 
# of ion       s       p       d       tot
------------------------------------------
    1        1.995   5.831   0.190   8.016
    2        0.472   1.280   3.217   4.969
    3        1.525   3.796   0.000   5.321
    4        1.547   3.553   0.000   5.100
    5        1.565   3.338   0.000   4.903
--------------------------------------------------
tot          7.104  17.798   3.407  28.309
 


 magnetization (x)
 
# of ion       s       p       d       tot
------------------------------------------
    1        0.000  -0.000   0.000  -0.000
    2       -0.000  -0.000   0.001   0.001
    3       -0.000  -0.001   0.000  -0.001
    4       -0.000  -0.000   0.000  -0.000
    5        0.000   0.000   0.000   0.000
--------------------------------------------------
tot          0.000  -0.002   0.001  -0.001
 


 magnetization (y)
 
# of ion       s       p       d       tot
------------------------------------------
    1       -0.000  -0.000  -0.000  -0.000
    2       -0.000  -0.000  -0.000  -0.000
    3        0.000  -0.002   0.000  -0.002
    4       -0.000  -0.001   0.000  -0.001
    5       -0.000  -0.001   0.000  -0.001
--------------------------------------------------
tot         -0.000  -0.005  -0.000  -0.005
 


 magnetization (z)
 
# of ion       s       p       d       tot
------------------------------------------
    1        0.000  -0.000   0.000   0.000
    2       -0.000   0.000   0.014   0.014
    3       -0.000   0.000   0.000   0.000
    4       -0.000   0.001   0.000   0.001
    5        0.000   0.003   0.000   0.003
--------------------------------------------------
tot          0.000   0.003   0.014   0.017
 
    --------------------------------------------
      LOOP:  cpu time   15.7030: real time   15.7048

 eigenvalue-minimisations  : 23759
 total energy-change (2. order) :-0.1631177E-01  (-0.1053827E-01)
 number of electron      33.0000001 magnetization       0.0004484     -0.0000741      0.0077161
 augmentation part       33.0000001 magnetization       0.0004484     -0.0000741      0.0077161

 Free energy of the ion-electron system (eV)
  ---------------------------------------------------
  alpha Z        PSCENC =       180.95685896
  Ewald energy   TEWEN  =     -2047.90029510
  -Hartree energ DENC   =      -423.66160937
  -exchange      EXHF   =         0.00000000
  -V(xc)+E(xc)   XCENC  =        77.78866555
  PAW double counting   =      3876.39837610    -3825.12620939
  entropy T*S    EENTRO =        -0.05810987
  eigenvalues    EBANDS =      -182.83397072
  atomic energy  EATOM  =      2306.65267270
  Solvation  Ediel_sol  =         0.00000000
  ---------------------------------------------------
  free energy    TOTEN  =       -37.78362115 eV

  energy without entropy =      -37.72551128  energy(sigma->0) =      -37.75456622


--------------------------------------------------------------------------------------------------------




--------------------------------------- Iteration      1(  11)  ---------------------------------------


    EDDIAG:  cpu time    2.3566: real time    2.3571
  RMM-DIIS:  cpu time   12.5254: real time   12.5269
    ORTHCH:  cpu time    0.3802: real time    0.3802
       DOS:  cpu time    0.0057: real time    0.0057
    --------------------------------------------
      LOOP:  cpu time   15.2269: real time   15.2289

 eigenvalue-minimisations  : 22714
 total energy-change (2. order) :-0.6452345E-02  (-0.6719070E-02)
 number of electron      33.0000001 magnetization       0.0004484     -0.0000741      0.0077161
 augmentation part       33.0000001 magnetization       0.0004484     -0.0000741      0.0077161

 Free energy of the ion-electron system (eV)
  ---------------------------------------------------
  alpha Z        PSCENC =       180.95685896
  Ewald energy   TEWEN  =     -2047.90029510
  -Hartree energ DENC   =      -423.66160937
  -exchange      EXHF   =         0.00000000
  -V(xc)+E(xc)   XCENC  =        77.78866555
  PAW double counting   =      3876.39837610    -3825.12620939
  entropy T*S    EENTRO =        -0.05811001
  eigenvalues    EBANDS =      -182.84042292
  atomic energy  EATOM  =      2306.65267270
  Solvation  Ediel_sol  =         0.00000000
  ---------------------------------------------------
  free energy    TOTEN  =       -37.79007350 eV

  energy without entropy =      -37.73196348  energy(sigma->0) =      -37.76101849


--------------------------------------------------------------------------------------------------------




--------------------------------------- Iteration      1(  12)  ---------------------------------------


    EDDIAG:  cpu time    2.2374: real time    2.2376
WARNING in EDDRMM: call to ZHEGV failed, returncode =   8  4      6
  RMM-DIIS:  cpu time   12.0248: real time   12.0263
    ORTHCH:  cpu time    0.3768: real time    0.3768
       DOS:  cpu time    0.0056: real time    0.0056
    --------------------------------------------
      LOOP:  cpu time   14.6446: real time   14.6464

 eigenvalue-minimisations  : 21451
 total energy-change (2. order) :-0.3749294E-02  (-0.3690049E-02)
 number of electron      33.0000001 magnetization       0.0004484     -0.0000741      0.0077161
 augmentation part       33.0000001 magnetization       0.0004484     -0.0000741      0.0077161

 Free energy of the ion-electron system (eV)
  ---------------------------------------------------
  alpha Z        PSCENC =       180.95685896
  Ewald energy   TEWEN  =     -2047.90029510
  -Hartree energ DENC   =      -423.66160937
  -exchange      EXHF   =         0.00000000
  -V(xc)+E(xc)   XCENC  =        77.78866555
  PAW double counting   =      3876.39837610    -3825.12620939
  entropy T*S    EENTRO =        -0.05811010
  eigenvalues    EBANDS =      -182.84417213
  atomic energy  EATOM  =      2306.65267270
  Solvation  Ediel_sol  =         0.00000000
  ---------------------------------------------------
  free energy    TOTEN  =       -37.79382279 eV

  energy without entropy =      -37.73571269  energy(sigma->0) =      -37.76476774


[...]
 -0.000   0.000  -0.000   0.000   0.000   0.000   0.000   0.000   0.000   0.000   0.000   0.000   0.000   0.000   0.000   0.000
  0.000   0.000   0.000   0.000  -0.000   0.000   0.000   0.000   0.000   0.000  -0.000   0.000   0.000   0.000   0.000   0.000
 -0.000   0.000   0.000   0.000   0.000   0.000  -0.000   0.000   0.000   0.000   0.000   0.000  -0.000   0.000   0.000   0.000
  0.000   0.000   0.000   0.000  -0.000   0.000   0.000   0.000  -0.000   0.000  -0.000   0.000   0.000   0.000  -0.000   0.000
 -0.000   0.000  -0.000   0.000  -0.000   0.000   0.000   0.000   0.000   0.000  -0.000   0.000   0.000   0.000   0.000   0.000
 -0.000   0.000  -0.000   0.000   0.000   0.000   0.000   0.000   0.000   0.000   0.000   0.000   0.000   0.000   0.000   0.000
  0.000   0.000   0.000   0.000  -0.000   0.000   0.000   0.000   0.000   0.000  -0.000   0.000   0.000   0.000   0.000   0.000
 -0.000   0.000   0.000   0.000   0.000   0.000  -0.000   0.000   0.000   0.000   0.000   0.000  -0.000   0.000   0.000   0.000
  0.000   0.000   0.000   0.000  -0.000   0.000   0.000   0.000  -0.000   0.000  -0.000   0.000   0.000   0.000  -0.000   0.000
 total augmentation occupancy for first ion, spin component:           1
  2.000   0.000   0.000   0.000   0.000   0.000   0.000   0.000   0.000   0.000   0.000   0.000   0.000   0.000   0.000   0.000
  0.000   1.999   0.000   0.000   0.000   0.000   0.000   0.000   0.000   0.000   0.000   0.000   0.000   0.000   0.000   0.000
  0.000   0.000   2.000   0.000   0.000   0.000   0.000   0.000   0.000   0.000   0.000   0.000   0.000   0.000   0.000   0.000
  0.000   0.000   0.000   2.000   0.000   0.000   0.000   0.000   0.000   0.000   0.000   0.000   0.000   0.000   0.000   0.000
  0.000   0.000   0.000   0.000   2.000   0.000   0.000   0.000   0.000   0.000   0.000   0.000   0.000   0.000   0.000   0.000
  0.000   0.000   0.000   0.000   0.000   0.000   0.000   0.000   0.000   0.000   0.000   0.000   0.000   0.000   0.000   0.000
  0.000   0.000   0.000   0.000   0.000   0.000   0.000   0.000   0.000   0.000   0.000   0.000   0.000   0.000   0.000   0.000
  0.000   0.000   0.000   0.000   0.000   0.000   0.000   0.000   0.000   0.000   0.000   0.000   0.000   0.000   0.000   0.000
  0.000   0.000   0.000   0.000   0.000   0.000   0.000   0.000   0.000   0.000   0.000   0.000   0.000   0.000   0.000   0.000
  0.000   0.000   0.000   0.000   0.000   0.000   0.000   0.000   0.000   0.000   0.000   0.000   0.000   0.000   0.000   0.000
  0.000   0.000   0.000   0.000   0.000   0.000   0.000   0.000   0.000   0.000   0.000   0.000   0.000   0.000   0.000   0.000
  0.000   0.000   0.000   0.000   0.000   0.000   0.000   0.000   0.000   0.000   0.000   0.000   0.000   0.000   0.000   0.000
  0.000   0.000   0.000   0.000   0.000   0.000   0.000   0.000   0.000   0.000   0.000   0.000   0.000   0.000   0.000   0.000
  0.000   0.000   0.000   0.000   0.000   0.000   0.000   0.000   0.000   0.000   0.000   0.000   0.000   0.000   0.000   0.000
  0.000   0.000   0.000   0.000   0.000   0.000   0.000   0.000   0.000   0.000   0.000   0.000   0.000   0.000   0.000   0.000
  0.000   0.000   0.000   0.000   0.000   0.000   0.000   0.000   0.000   0.000   0.000   0.000   0.000   0.000   0.000   0.000
  0.000   0.000   0.000   0.000   0.000   0.000   0.000   0.000   0.000   0.000   0.000   0.000   0.000   0.000   0.000   0.000
  0.000   0.000   0.000   0.000   0.000   0.000   0.000   0.000   0.000   0.000   0.000   0.000   0.000   0.000   0.000   0.000
 total augmentation occupancy for first ion, spin component:           2
  0.000   0.000   0.000   0.000   0.000   0.000   0.000   0.000   0.000   0.000   0.000   0.000   0.000   0.000   0.000   0.000
  0.000   0.000   0.000   0.000   0.000   0.000   0.000   0.000   0.000   0.000   0.000   0.000   0.000   0.000   0.000   0.000
  0.000   0.000   0.000   0.000   0.000   0.000   0.000   0.000   0.000   0.000   0.000   0.000   0.000   0.000   0.000   0.000
  0.000   0.000   0.000   0.000   0.000   0.000   0.000   0.000   0.000   0.000   0.000   0.000   0.000   0.000   0.000   0.000
  0.000   0.000   0.000   0.000   0.000   0.000   0.000   0.000   0.000   0.000   0.000   0.000   0.000   0.000   0.000   0.000
  0.000   0.000   0.000   0.000   0.000   0.000   0.000   0.000   0.000   0.000   0.000   0.000   0.000   0.000   0.000   0.000
  0.000   0.000   0.000   0.000   0.000   0.000   0.000   0.000   0.000   0.000   0.000   0.000   0.000   0.000   0.000   0.000
  0.000   0.000   0.000   0.000   0.000   0.000   0.000   0.000   0.000   0.000   0.000   0.000   0.000   0.000   0.000   0.000
  0.000   0.000   0.000   0.000   0.000   0.000   0.000   0.000   0.000   0.000   0.000   0.000   0.000   0.000   0.000   0.000
  0.000   0.000   0.000   0.000   0.000   0.000   0.000   0.000   0.000   0.000   0.000   0.000   0.000   0.000   0.000   0.000
  0.000   0.000   0.000   0.000   0.000   0.000   0.000   0.000   0.000   0.000   0.000   0.000   0.000   0.000   0.000   0.000
  0.000   0.000   0.000   0.000   0.000   0.000   0.000   0.000   0.000   0.000   0.000   0.000   0.000   0.000   0.000   0.000
  0.000   0.000   0.000   0.000   0.000   0.000   0.000   0.000   0.000   0.000   0.000   0.000   0.000   0.000   0.000   0.000
  0.000   0.000   0.000   0.000   0.000   0.000   0.000   0.000   0.000   0.000   0.000   0.000   0.000   0.000   0.000   0.000
  0.000   0.000   0.000   0.000   0.000   0.000   0.000   0.000   0.000   0.000   0.000   0.000   0.000   0.000   0.000   0.000
  0.000   0.000   0.000   0.000   0.000   0.000   0.000   0.000   0.000   0.000   0.000   0.000   0.000   0.000   0.000   0.000
  0.000   0.000   0.000   0.000   0.000   0.000   0.000   0.000   0.000   0.000   0.000   0.000   0.000   0.000   0.000   0.000
  0.000   0.000   0.000   0.000   0.000   0.000   0.000   0.000   0.000   0.000   0.000   0.000   0.000   0.000   0.000   0.000
 total augmentation occupancy for first ion, spin component:           3
  0.000   0.000   0.000   0.000   0.000   0.000   0.000   0.000   0.000   0.000   0.000   0.000   0.000   0.000   0.000   0.000
  0.000   0.000   0.000   0.000   0.000   0.000   0.000   0.000   0.000   0.000   0.000   0.000   0.000   0.000   0.000   0.000
  0.000   0.000   0.000   0.000   0.000   0.000   0.000   0.000   0.000   0.000   0.000   0.000   0.000   0.000   0.000   0.000
  0.000   0.000   0.000   0.000   0.000   0.000   0.000   0.000   0.000   0.000   0.000   0.000   0.000   0.000   0.000   0.000
  0.000   0.000   0.000   0.000   0.000   0.000   0.000   0.000   0.000   0.000   0.000   0.000   0.000   0.000   0.000   0.000
  0.000   0.000   0.000   0.000   0.000   0.000   0.000   0.000   0.000   0.000   0.000   0.000   0.000   0.000   0.000   0.000
  0.000   0.000   0.000   0.000   0.000   0.000   0.000   0.000   0.000   0.000   0.000   0.000   0.000   0.000   0.000   0.000
  0.000   0.000   0.000   0.000   0.000   0.000   0.000   0.000   0.000   0.000   0.000   0.000   0.000   0.000   0.000   0.000
  0.000   0.000   0.000   0.000   0.000   0.000   0.000   0.000   0.000   0.000   0.000   0.000   0.000   0.000   0.000   0.000
  0.000   0.000   0.000   0.000   0.000   0.000   0.000   0.000   0.000   0.000   0.000   0.000   0.000   0.000   0.000   0.000
  0.000   0.000   0.000   0.000   0.000   0.000   0.000   0.000   0.000   0.000   0.000   0.000   0.000   0.000   0.000   0.000
  0.000   0.000   0.000   0.000   0.000   0.000   0.000   0.000   0.000   0.000   0.000   0.000   0.000   0.000   0.000   0.000
  0.000   0.000   0.000   0.000   0.000   0.000   0.000   0.000   0.000   0.000   0.000   0.000   0.000   0.000   0.000   0.000
  0.000   0.000   0.000   0.000   0.000   0.000   0.000   0.000   0.000   0.000   0.000   0.000   0.000   0.000   0.000   0.000
  0.000   0.000   0.000   0.000   0.000   0.000   0.000   0.000   0.000   0.000   0.000   0.000   0.000   0.000   0.000   0.000
  0.000   0.000   0.000   0.000   0.000   0.000   0.000   0.000   0.000   0.000   0.000   0.000   0.000   0.000   0.000   0.000
  0.000   0.000   0.000   0.000   0.000   0.000   0.000   0.000   0.000   0.000   0.000   0.000   0.000   0.000   0.000   0.000
  0.000   0.000   0.000   0.000   0.000   0.000   0.000   0.000   0.000   0.000   0.000   0.000   0.000   0.000   0.000   0.000
 total augmentation occupancy for first ion, spin component:           4
  0.200   0.000   0.000   0.000   0.000   0.000   0.000   0.000   0.000   0.000   0.000   0.000   0.000   0.000   0.000   0.000
  0.000   0.200   0.000   0.000   0.000   0.000   0.000   0.000   0.000   0.000   0.000   0.000   0.000   0.000   0.000   0.000
  0.000   0.000   0.200   0.000   0.000   0.000   0.000   0.000   0.000   0.000   0.000   0.000   0.000   0.000   0.000   0.000
  0.000   0.000   0.000   0.200   0.000   0.000   0.000   0.000   0.000   0.000   0.000   0.000   0.000   0.000   0.000   0.000
  0.000   0.000   0.000   0.000   0.200   0.000   0.000   0.000   0.000   0.000   0.000   0.000   0.000   0.000   0.000   0.000
  0.000   0.000   0.000   0.000   0.000   0.000   0.000   0.000   0.000   0.000   0.000   0.000   0.000   0.000   0.000   0.000
  0.000   0.000   0.000   0.000   0.000   0.000   0.000   0.000   0.000   0.000   0.000   0.000   0.000   0.000   0.000   0.000
  0.000   0.000   0.000   0.000   0.000   0.000   0.000   0.000   0.000   0.000   0.000   0.000   0.000   0.000   0.000   0.000
  0.000   0.000   0.000   0.000   0.000   0.000   0.000   0.000   0.000   0.000   0.000   0.000   0.000   0.000   0.000   0.000
  0.000   0.000   0.000   0.000   0.000   0.000   0.000   0.000   0.000   0.000   0.000   0.000   0.000   0.000   0.000   0.000
  0.000   0.000   0.000   0.000   0.000   0.000   0.000   0.000   0.000   0.000   0.000   0.000   0.000   0.000   0.000   0.000
  0.000   0.000   0.000   0.000   0.000   0.000   0.000   0.000   0.000   0.000   0.000   0.000   0.000   0.000   0.000   0.000
  0.000   0.000   0.000   0.000   0.000   0.000   0.000   0.000   0.000   0.000   0.000   0.000   0.000   0.000   0.000   0.000
  0.000   0.000   0.000   0.000   0.000   0.000   0.000   0.000   0.000   0.000   0.000   0.000   0.000   0.000   0.000   0.000
  0.000   0.000   0.000   0.000   0.000   0.000   0.000   0.000   0.000   0.000   0.000   0.000   0.000   0.000   0.000   0.000
  0.000   0.000   0.000   0.000   0.000   0.000   0.000   0.000   0.000   0.000   0.000   0.000   0.000   0.000   0.000   0.000
  0.000   0.000   0.000   0.000   0.000   0.000   0.000   0.000   0.000   0.000   0.000   0.000   0.000   0.000   0.000   0.000
  0.000   0.000   0.000   0.000   0.000   0.000   0.000   0.000   0.000   0.000   0.000   0.000   0.000   0.000   0.000   0.000


------------------------ aborting loop because EDIFF is reached ----------------------------------------


 


 total charge     
 
# of ion       s       p       d       tot
------------------------------------------
    1        1.996   5.831   0.190   8.017
    2        0.472   1.280   3.206   4.958
    3        1.525   3.799   0.000   5.324
    4        1.547   3.557   0.000   5.103
    5        1.565   3.339   0.000   4.904
--------------------------------------------------
tot          7.105  17.806   3.396  28.306
 


 magnetization (x)
 
# of ion       s       p       d       tot
------------------------------------------
    1       -0.000  -0.000   0.000  -0.000
    2        0.000   0.000   0.001   0.001
    3       -0.000   0.001   0.000   0.001
    4       -0.000  -0.001   0.000  -0.001
    5       -0.000  -0.000   0.000  -0.000
--------------------------------------------------
tot         -0.000   0.000   0.001   0.001
 


 magnetization (y)
 
# of ion       s       p       d       tot
------------------------------------------
    1        0.000   0.000   0.000   0.000
    2       -0.000  -0.000  -0.000  -0.000
    3        0.000  -0.000   0.000  -0.000
    4        0.000   0.001   0.000   0.001
    5        0.000   0.001   0.000   0.001
--------------------------------------------------
tot          0.000   0.001  -0.000   0.001
 


 magnetization (z)
 
# of ion       s       p       d       tot
------------------------------------------
    1       -0.000  -0.000   0.000   0.000
    2        0.000   0.000   0.014   0.014
    3       -0.000   0.000   0.000   0.000
    4       -0.000   0.001   0.000   0.001
    5       -0.000   0.001   0.000   0.001
--------------------------------------------------
tot         -0.000   0.003   0.014   0.017
 
    CHARGE:  cpu time    0.7665: real time    0.7667
    FORLOC:  cpu time    0.0041: real time    0.0041
    FORNL :  cpu time    3.8381: real time    3.8386
    STRESS:  cpu time    8.1671: real time    8.1681
    FORCOR:  cpu time    0.0593: real time    0.0593
    FORHAR:  cpu time    0.0077: real time    0.0077
    OFIELD:  cpu time    0.0005: real time    0.0005

  FORCE on cell =-STRESS in cart. coord.  units (eV):
  Direction    XX          YY          ZZ          XY          YZ          ZX
  --------------------------------------------------------------------------------------
  Alpha Z   180.95686   180.95686   180.95686
  Ewald    -682.63392  -682.63392  -682.63392    -0.00000     0.00000     0.00000
  Hartree   142.64828   146.97547   148.80914     0.31574     0.18025     0.15336
  E(xc)    -149.38256  -149.52597  -149.21823     0.02900     0.01991     0.02076
  Local      13.19844     3.81458     2.53225     0.24056     0.09719     0.17089
  n-local  -111.92691  -109.80575  -107.01678    -0.35800    -0.18794    -0.17704
  augment    43.35520    44.64977    44.11381    -0.10287    -0.06231    -0.06712
  Kinetic   558.62683   573.87240   577.85941    -1.59751    -0.82040    -0.86078
  Fock        0.00000     0.00000     0.00000     0.00000     0.00000     0.00000
  -------------------------------------------------------------------------------------
  Total      -5.15779     8.30343    15.40253    -1.47308    -0.77329    -0.75993
  in kB    -145.20112   233.75678   433.60950   -41.46991   -21.76957   -21.39354
  external pressure =      174.06 kB  Pullay stress =        0.00 kB


 VOLUME and BASIS-vectors are now :
 -----------------------------------------------------------------------------
  energy-cutoff  :      600.00
  volume of cell :       56.91
      direct lattice vectors                 reciprocal lattice vectors
     3.846520000  0.000000000  0.000000000     0.259975250  0.000000000  0.000000000
     0.000000000  3.846520000  0.000000000     0.000000000  0.259975250  0.000000000
     0.000000000  0.000000000  3.846520000     0.000000000  0.000000000  0.259975250

  length of vectors
     3.846520000  3.846520000  3.846520000     0.259975250  0.259975250  0.259975250


 FORCES acting on ions
    electron-ion (+dipol)            ewald-force                    non-local-force                 convergence-correction
 -----------------------------------------------------------------------------------------------
   -.482E-14 -.501E-14 -.502E-14   -.479E-14 -.313E-14 -.318E-14   0.000E+00 0.000E+00 0.000E+00   -.121E-13 -.515E-13 -.529E-13
   0.255E-13 -.210E-12 -.177E-12   -.289E-14 -.187E-14 0.208E-15   0.000E+00 0.000E+00 0.000E+00   -.232E-13 0.104E-12 0.165E-12
   0.169E-12 -.154E-11 -.885E-14   0.406E-14 -.102E-14 0.290E-15   0.000E+00 0.000E+00 0.000E+00   -.310E-13 0.257E-12 -.374E-12
   0.158E-12 -.440E-14 -.146E-11   0.190E-14 0.339E-14 0.147E-14   0.000E+00 0.000E+00 0.000E+00   0.124E-13 -.113E-12 0.577E-13
   -.856E-14 0.154E-12 0.153E-12   0.166E-14 0.231E-14 0.145E-14   0.000E+00 0.000E+00 0.000E+00   -.192E-14 0.328E-13 0.786E-13
 -----------------------------------------------------------------------------------------------
   0.339E-12 -.160E-11 -.149E-11   -.550E-16 -.318E-15 0.244E-15   0.000E+00 0.000E+00 0.000E+00   -.559E-13 0.230E-12 -.125E-12
 
 
 POSITION                                       TOTAL-FORCE (eV/Angst)
 -----------------------------------------------------------------------------------
      0.00000      0.00000      0.00000         0.000000      0.000000      0.000000
      1.92326      1.92326      1.92326         0.000000      0.000000      0.000000
      1.92326      1.92326      0.00000         0.000000      0.000000      0.000000
      1.92326      0.00000      1.92326         0.000000      0.000000      0.000000
      0.00000      1.92326      1.92326         0.000000      0.000000      0.000000
 -----------------------------------------------------------------------------------
    total drift:                                0.000000     -0.000000     -0.000000


--------------------------------------------------------------------------------------------------------



  FREE ENERGIE OF THE ION-ELECTRON SYSTEM (eV)
  ---------------------------------------------------
  free  energy   TOTEN  =       -37.81849615 eV

  energy  without entropy=      -37.75976175  energy(sigma->0) =      -37.78912895
 


--------------------------------------------------------------------------------------------------------


    POTLOK:  cpu time    0.1380: real time    0.1380


--------------------------------------------------------------------------------------------------------


 writing wavefunctions
     LOOP+:  cpu time  360.0066: real time  361.1538
    4ORBIT:  cpu time    0.0000: real time    0.0000
 


 total charge     
 
# of ion       s       p       d       tot
------------------------------------------
    1        1.996   5.831   0.190   8.017
    2        0.472   1.280   3.206   4.958
    3        1.525   3.799   0.000   5.324
    4        1.547   3.557   0.000   5.103
    5        1.565   3.339   0.000   4.904
--------------------------------------------------
tot          7.105  17.806   3.396  28.306
 


 magnetization (x)
 
# of ion       s       p       d       tot
------------------------------------------
    1       -0.000  -0.000   0.000  -0.000
    2        0.000   0.000   0.001   0.001
    3       -0.000   0.001   0.000   0.001
    4       -0.000  -0.001   0.000  -0.001
    5       -0.000  -0.000   0.000  -0.000
--------------------------------------------------
tot         -0.000   0.000   0.001   0.001
 


 magnetization (y)
 
# of ion       s       p       d       tot
------------------------------------------
    1        0.000   0.000   0.000   0.000
    2       -0.000  -0.000  -0.000  -0.000
    3        0.000  -0.000   0.000  -0.000
    4        0.000   0.001   0.000   0.001
    5        0.000   0.001   0.000   0.001
--------------------------------------------------
tot          0.000   0.001  -0.000   0.001
 


 magnetization (z)
 
# of ion       s       p       d       tot
------------------------------------------
    1       -0.000  -0.000   0.000   0.000
    2        0.000   0.000   0.014   0.014
    3       -0.000   0.000   0.000   0.000
    4       -0.000   0.001   0.000   0.001
    5       -0.000   0.001   0.000   0.001
--------------------------------------------------
tot         -0.000   0.003   0.014   0.017
 

 total amount of memory used by VASP MPI-rank0   280768. kBytes
=======================================================================

   base      :      30000. kBytes
   nonl-proj :     133902. kBytes
   fftplans  :       6744. kBytes
   grid      :       7667. kBytes
   one-center:        311. kBytes
   wavefun   :     102144. kBytes
 
  
  
 General timing and accounting informations for this job:
 ========================================================
  
                  Total CPU time used (sec):      368.262
                            User time (sec):      360.766
                          System time (sec):        7.496
                         Elapsed time (sec):      369.407
  
                   Maximum memory used (kb):      298012.
                   Average memory used (kb):           0.
  
                          Minor page faults:       658099
                          Major page faults:            0
                 Voluntary context switches:          177
