
     Program PROJWFC v.6.5 starts on 18May2020 at  3: 1:53 

     This program is part of the open-source Quantum ESPRESSO suite
     for quantum simulation of materials; please cite
         "P. Giannozzi et al., J. Phys.:Condens. Matter 21 395502 (2009);
         "P. Giannozzi et al., J. Phys.:Condens. Matter 29 465901 (2017);
          URL http://www.quantum-espresso.org", 
     in publications or presentations arising from this work. More details at
     http://www.quantum-espresso.org/quote

     Serial version

     Reading xml data from directory:

     ./MoS2.save/

     IMPORTANT: XC functional enforced from input :
     Exchange-correlation= PBE
                           (   1   4   3   4   0   0   0)
     Any further DFT definition will be discarded
     Please, verify this is what you really want

               file Mo.pbe-spn-kjpaw_psl.0.2.UPF: wavefunction(s)  4D renormalized
               file S.pbe-n-kjpaw_psl.1.0.0.UPF: wavefunction(s)  3S 3P renormalized

     G-vector sticks info
     --------------------
     sticks:   dense  smooth     PW     G-vecs:    dense   smooth      PW
     Sum         595     499    151                47487    34107    5763


     Check: negative core charge=   -0.000011

     Gaussian broadening (read from input): ngauss,degauss=   0    0.036748


     Calling projwave .... 

  Problem Sizes 
  natomwfc =           42
  nbnd     =           30
  nkstot   =          271
  npwx     =         4300
  nkb      =          108


     Atomic states used for projection
     (read from pseudopotential files):

     state #   1: atom   1 (Mo ), wfc  1 (l=0 m= 1)
     state #   2: atom   1 (Mo ), wfc  2 (l=0 m= 1)
     state #   3: atom   1 (Mo ), wfc  3 (l=1 m= 1)
     state #   4: atom   1 (Mo ), wfc  3 (l=1 m= 2)
     state #   5: atom   1 (Mo ), wfc  3 (l=1 m= 3)
     state #   6: atom   1 (Mo ), wfc  4 (l=1 m= 1)
     state #   7: atom   1 (Mo ), wfc  4 (l=1 m= 2)
     state #   8: atom   1 (Mo ), wfc  4 (l=1 m= 3)
     state #   9: atom   1 (Mo ), wfc  5 (l=2 m= 1)
     state #  10: atom   1 (Mo ), wfc  5 (l=2 m= 2)
     state #  11: atom   1 (Mo ), wfc  5 (l=2 m= 3)
     state #  12: atom   1 (Mo ), wfc  5 (l=2 m= 4)
     state #  13: atom   1 (Mo ), wfc  5 (l=2 m= 5)
     state #  14: atom   2 (Mo ), wfc  1 (l=0 m= 1)
     state #  15: atom   2 (Mo ), wfc  2 (l=0 m= 1)
     state #  16: atom   2 (Mo ), wfc  3 (l=1 m= 1)
     state #  17: atom   2 (Mo ), wfc  3 (l=1 m= 2)
     state #  18: atom   2 (Mo ), wfc  3 (l=1 m= 3)
     state #  19: atom   2 (Mo ), wfc  4 (l=1 m= 1)
     state #  20: atom   2 (Mo ), wfc  4 (l=1 m= 2)
     state #  21: atom   2 (Mo ), wfc  4 (l=1 m= 3)
     state #  22: atom   2 (Mo ), wfc  5 (l=2 m= 1)
     state #  23: atom   2 (Mo ), wfc  5 (l=2 m= 2)
     state #  24: atom   2 (Mo ), wfc  5 (l=2 m= 3)
     state #  25: atom   2 (Mo ), wfc  5 (l=2 m= 4)
     state #  26: atom   2 (Mo ), wfc  5 (l=2 m= 5)
     state #  27: atom   3 (S  ), wfc  1 (l=0 m= 1)
     state #  28: atom   3 (S  ), wfc  2 (l=1 m= 1)
     state #  29: atom   3 (S  ), wfc  2 (l=1 m= 2)
     state #  30: atom   3 (S  ), wfc  2 (l=1 m= 3)
     state #  31: atom   4 (S  ), wfc  1 (l=0 m= 1)
     state #  32: atom   4 (S  ), wfc  2 (l=1 m= 1)
     state #  33: atom   4 (S  ), wfc  2 (l=1 m= 2)
     state #  34: atom   4 (S  ), wfc  2 (l=1 m= 3)
     state #  35: atom   5 (S  ), wfc  1 (l=0 m= 1)
     state #  36: atom   5 (S  ), wfc  2 (l=1 m= 1)
     state #  37: atom   5 (S  ), wfc  2 (l=1 m= 2)
     state #  38: atom   5 (S  ), wfc  2 (l=1 m= 3)
     state #  39: atom   6 (S  ), wfc  1 (l=0 m= 1)
     state #  40: atom   6 (S  ), wfc  2 (l=1 m= 1)
     state #  41: atom   6 (S  ), wfc  2 (l=1 m= 2)
     state #  42: atom   6 (S  ), wfc  2 (l=1 m= 3)

 k =   0.0000000000  0.0000000000  0.0000000000
==== e(   1) =   -50.21339 eV ==== 
     psi = 0.478*[#   1]+0.478*[#  14]+0.010*[#   2]+0.010*[#  15]+0.004*[#  28]
          +0.004*[#  32]+0.004*[#  36]+0.004*[#  40]+0.002*[#   9]+0.002*[#  22]
          
    |psi|^2 = 1.000
==== e(   2) =   -50.21339 eV ==== 
     psi = 0.477*[#   1]+0.477*[#  14]+0.009*[#   2]+0.009*[#  15]+0.005*[#  28]
          +0.005*[#  32]+0.005*[#  36]+0.005*[#  40]+0.002*[#   9]+0.002*[#  22]
          
    |psi|^2 = 1.000
==== e(   3) =   -24.41820 eV ==== 
     psi = 0.485*[#   3]+0.485*[#  16]+0.006*[#   6]+0.006*[#  19]+0.002*[#  27]
          +0.002*[#  28]+0.002*[#  31]+0.002*[#  32]+0.002*[#  35]+0.002*[#  36]
          +0.002*[#  39]+0.002*[#  40]
    |psi|^2 = 1.000
==== e(   4) =   -24.41815 eV ==== 
     psi = 0.486*[#   3]+0.486*[#  16]+0.005*[#   6]+0.005*[#  19]+0.002*[#  28]
          +0.002*[#  32]+0.002*[#  36]+0.002*[#  40]+0.002*[#  27]+0.002*[#  31]
          +0.002*[#  35]+0.002*[#  39]
    |psi|^2 = 1.000
==== e(   5) =   -24.09803 eV ==== 
     psi = 0.241*[#   4]+0.241*[#   5]+0.241*[#  17]+0.241*[#  18]+0.008*[#   7]
          +0.008*[#   8]+0.008*[#  20]+0.008*[#  21]
    |psi|^2 = 1.000
==== e(   6) =   -24.09803 eV ==== 
     psi = 0.241*[#   4]+0.241*[#   5]+0.241*[#  17]+0.241*[#  18]+0.008*[#   7]
          +0.008*[#   8]+0.008*[#  20]+0.008*[#  21]
    |psi|^2 = 1.000
==== e(   7) =   -24.09801 eV ==== 
     psi = 0.242*[#   4]+0.242*[#   5]+0.242*[#  17]+0.242*[#  18]+0.008*[#   7]
          +0.008*[#   8]+0.008*[#  20]+0.008*[#  21]
    |psi|^2 = 1.000
==== e(   8) =   -24.09801 eV ==== 
     psi = 0.242*[#   4]+0.242*[#   5]+0.242*[#  17]+0.242*[#  18]+0.008*[#   7]
          +0.008*[#   8]+0.008*[#  20]+0.008*[#  21]
    |psi|^2 = 1.000
==== e(   9) =    -3.80161 eV ==== 
     psi = 0.206*[#   2]+0.206*[#  15]+0.141*[#  27]+0.141*[#  31]+0.141*[#  35]
          +0.141*[#  39]+0.009*[#   1]+0.009*[#  14]+0.002*[#   9]+0.002*[#  22]
          
    |psi|^2 = 0.999
==== e(  10) =    -3.48925 eV ==== 
     psi = 0.190*[#   2]+0.190*[#  15]+0.143*[#  27]+0.143*[#  31]+0.143*[#  35]
          +0.143*[#  39]+0.011*[#   1]+0.011*[#  14]+0.006*[#  28]+0.006*[#  32]
          +0.006*[#  36]+0.006*[#  40]
    |psi|^2 = 0.999
==== e(  11) =    -2.66744 eV ==== 
     psi = 0.223*[#   6]+0.223*[#  19]+0.133*[#  27]+0.133*[#  31]+0.133*[#  35]
          +0.133*[#  39]+0.010*[#   3]+0.010*[#  16]
    |psi|^2 = 0.998
==== e(  12) =    -2.17177 eV ==== 
     psi = 0.181*[#   6]+0.181*[#  19]+0.154*[#  27]+0.154*[#  31]+0.154*[#  35]
          +0.154*[#  39]+0.011*[#   3]+0.011*[#  16]
    |psi|^2 = 0.999
==== e(  13) =     4.30245 eV ==== 
     psi = 0.159*[#  28]+0.159*[#  32]+0.159*[#  36]+0.159*[#  40]+0.130*[#   9]
          +0.130*[#  22]+0.016*[#   2]+0.016*[#  15]+0.012*[#   1]+0.012*[#  14]
          +0.010*[#  27]+0.010*[#  31]+0.010*[#  35]+0.010*[#  39]
    |psi|^2 = 0.991
==== e(  14) =     5.42171 eV ==== 
     psi = 0.203*[#   9]+0.203*[#  22]+0.107*[#  28]+0.107*[#  32]+0.107*[#  36]
          +0.107*[#  40]+0.023*[#  27]+0.023*[#  31]+0.023*[#  35]+0.023*[#  39]
          +0.020*[#   2]+0.020*[#  15]+0.011*[#   1]+0.011*[#  14]
    |psi|^2 = 0.987
==== e(  15) =     7.55885 eV ==== 
     psi = 0.233*[#  28]+0.233*[#  32]+0.233*[#  36]+0.233*[#  40]+0.019*[#   6]
          +0.019*[#  19]+0.005*[#  27]+0.005*[#  31]+0.005*[#  35]+0.005*[#  39]
          +0.004*[#   3]+0.004*[#  16]
    |psi|^2 = 0.996
==== e(  16) =     8.11261 eV ==== 
     psi = 0.167*[#  12]+0.167*[#  13]+0.167*[#  25]+0.167*[#  26]+0.040*[#  29]
          +0.040*[#  30]+0.040*[#  33]+0.040*[#  34]+0.040*[#  37]+0.040*[#  38]
          +0.040*[#  41]+0.040*[#  42]
    |psi|^2 = 0.992
==== e(  17) =     8.11261 eV ==== 
     psi = 0.167*[#  12]+0.167*[#  13]+0.167*[#  25]+0.167*[#  26]+0.040*[#  29]
          +0.040*[#  30]+0.040*[#  33]+0.040*[#  34]+0.040*[#  37]+0.040*[#  38]
          +0.040*[#  41]+0.040*[#  42]
    |psi|^2 = 0.992
==== e(  18) =     8.12823 eV ==== 
     psi = 0.168*[#  12]+0.168*[#  13]+0.168*[#  25]+0.168*[#  26]+0.040*[#  29]
          +0.040*[#  30]+0.040*[#  33]+0.040*[#  34]+0.040*[#  37]+0.040*[#  38]
          +0.040*[#  41]+0.040*[#  42]
    |psi|^2 = 0.991
==== e(  19) =     8.12823 eV ==== 
     psi = 0.168*[#  12]+0.168*[#  13]+0.168*[#  25]+0.168*[#  26]+0.040*[#  29]
          +0.040*[#  30]+0.040*[#  33]+0.040*[#  34]+0.040*[#  37]+0.040*[#  38]
          +0.040*[#  41]+0.040*[#  42]
    |psi|^2 = 0.991
==== e(  20) =     9.16724 eV ==== 
     psi = 0.139*[#  10]+0.139*[#  11]+0.139*[#  23]+0.139*[#  24]+0.054*[#  29]
          +0.054*[#  30]+0.054*[#  33]+0.054*[#  34]+0.054*[#  37]+0.054*[#  38]
          +0.054*[#  41]+0.054*[#  42]
    |psi|^2 = 0.989
==== e(  21) =     9.16724 eV ==== 
     psi = 0.139*[#  10]+0.139*[#  11]+0.139*[#  23]+0.139*[#  24]+0.054*[#  29]
          +0.054*[#  30]+0.054*[#  33]+0.054*[#  34]+0.054*[#  37]+0.054*[#  38]
          +0.054*[#  41]+0.054*[#  42]
    |psi|^2 = 0.989
==== e(  22) =     9.22117 eV ==== 
     psi = 0.143*[#  10]+0.143*[#  11]+0.143*[#  23]+0.143*[#  24]+0.052*[#  29]
          +0.052*[#  30]+0.052*[#  33]+0.052*[#  34]+0.052*[#  37]+0.052*[#  38]
          +0.052*[#  41]+0.052*[#  42]
    |psi|^2 = 0.988
==== e(  23) =     9.22117 eV ==== 
     psi = 0.143*[#  10]+0.143*[#  11]+0.143*[#  23]+0.143*[#  24]+0.052*[#  29]
          +0.052*[#  30]+0.052*[#  33]+0.052*[#  34]+0.052*[#  37]+0.052*[#  38]
          +0.052*[#  41]+0.052*[#  42]
    |psi|^2 = 0.988
==== e(  24) =     9.93813 eV ==== 
     psi = 0.332*[#   9]+0.332*[#  22]+0.074*[#  28]+0.074*[#  32]+0.074*[#  36]
          +0.074*[#  40]+0.003*[#   2]+0.003*[#  15]
    |psi|^2 = 0.970
==== e(  25) =     9.99922 eV ==== 
     psi = 0.242*[#  28]+0.242*[#  32]+0.242*[#  36]+0.242*[#  40]+0.004*[#   3]
          +0.004*[#  16]+0.002*[#  27]+0.002*[#  31]+0.002*[#  35]+0.002*[#  39]
          +0.001*[#   6]+0.001*[#  19]
    |psi|^2 = 0.989
==== e(  26) =    11.14181 eV ==== 
     psi = 0.286*[#   9]+0.286*[#  22]+0.089*[#  28]+0.089*[#  32]+0.089*[#  36]
          +0.089*[#  40]+0.014*[#  27]+0.014*[#  31]+0.014*[#  35]+0.014*[#  39]
          +0.004*[#   2]+0.004*[#  15]
    |psi|^2 = 0.993
==== e(  27) =    13.37222 eV ==== 
     psi = 0.104*[#  10]+0.104*[#  11]+0.104*[#  23]+0.104*[#  24]+0.070*[#  29]
          +0.070*[#  30]+0.070*[#  33]+0.070*[#  34]+0.070*[#  37]+0.070*[#  38]
          +0.070*[#  41]+0.070*[#  42]
    |psi|^2 = 0.974
==== e(  28) =    13.37222 eV ==== 
     psi = 0.104*[#  10]+0.104*[#  11]+0.104*[#  23]+0.104*[#  24]+0.070*[#  29]
          +0.070*[#  30]+0.070*[#  33]+0.070*[#  34]+0.070*[#  37]+0.070*[#  38]
          +0.070*[#  41]+0.070*[#  42]
    |psi|^2 = 0.974
==== e(  29) =    13.40709 eV ==== 
     psi = 0.100*[#  10]+0.100*[#  11]+0.100*[#  23]+0.100*[#  24]+0.071*[#  29]
          +0.071*[#  30]+0.071*[#  33]+0.071*[#  34]+0.071*[#  37]+0.071*[#  38]
          +0.071*[#  41]+0.071*[#  42]
    |psi|^2 = 0.969
==== e(  30) =    13.40709 eV ==== 
     psi = 0.100*[#  10]+0.100*[#  11]+0.100*[#  23]+0.100*[#  24]+0.071*[#  29]
          +0.071*[#  30]+0.071*[#  33]+0.071*[#  34]+0.071*[#  37]+0.071*[#  38]
          +0.071*[#  41]+0.071*[#  42]
    |psi|^2 = 0.969

 k =   0.0192450090  0.0000000000  0.0000000000
==== e(   1) =   -50.21327 eV ==== 
     psi = 0.478*[#   1]+0.478*[#  14]+0.009*[#   2]+0.009*[#  15]+0.004*[#  28]
          +0.004*[#  32]+0.004*[#  36]+0.004*[#  40]+0.002*[#   9]+0.002*[#  22]
          
    |psi|^2 = 1.000
==== e(   2) =   -50.21327 eV ==== 
     psi = 0.477*[#   1]+0.477*[#  14]+0.009*[#   2]+0.009*[#  15]+0.005*[#  28]
          +0.005*[#  32]+0.005*[#  36]+0.005*[#  40]+0.002*[#   9]+0.002*[#  22]
          
    |psi|^2 = 1.000
==== e(   3) =   -24.41796 eV ==== 
     psi = 0.485*[#   3]+0.485*[#  16]+0.006*[#   6]+0.006*[#  19]+0.002*[#  27]
          +0.002*[#  28]+0.002*[#  31]+0.002*[#  32]+0.002*[#  35]+0.002*[#  36]
          +0.002*[#  39]+0.002*[#  40]
    |psi|^2 = 1.000
==== e(   4) =   -24.41795 eV ==== 
     psi = 0.486*[#   3]+0.486*[#  16]+0.005*[#   6]+0.005*[#  19]+0.002*[#  28]
          +0.002*[#  32]+0.002*[#  36]+0.002*[#  40]+0.002*[#  27]+0.002*[#  31]
          +0.002*[#  35]+0.002*[#  39]
    |psi|^2 = 1.000
==== e(   5) =   -24.09917 eV ==== 
     psi = 0.242*[#   4]+0.242*[#   5]+0.242*[#  17]+0.242*[#  18]+0.008*[#   7]
          +0.008*[#   8]+0.008*[#  20]+0.008*[#  21]
    |psi|^2 = 1.000
==== e(   6) =   -24.09917 eV ==== 
     psi = 0.241*[#   4]+0.241*[#   5]+0.241*[#  17]+0.241*[#  18]+0.008*[#   7]
          +0.008*[#   8]+0.008*[#  20]+0.008*[#  21]
    |psi|^2 = 1.000
==== e(   7) =   -24.09828 eV ==== 
     psi = 0.241*[#   4]+0.241*[#   5]+0.241*[#  17]+0.241*[#  18]+0.008*[#   7]
          +0.008*[#   8]+0.008*[#  20]+0.008*[#  21]
    |psi|^2 = 1.000
==== e(   8) =   -24.09827 eV ==== 
     psi = 0.242*[#   4]+0.242*[#   5]+0.242*[#  17]+0.242*[#  18]+0.008*[#   7]
          +0.008*[#   8]+0.008*[#  20]+0.008*[#  21]
    |psi|^2 = 1.000
==== e(   9) =    -3.79728 eV ==== 
     psi = 0.204*[#   2]+0.204*[#  15]+0.141*[#  27]+0.141*[#  31]+0.141*[#  35]
          +0.141*[#  39]+0.009*[#   1]+0.009*[#  14]+0.002*[#   9]+0.002*[#  22]
          
    |psi|^2 = 0.999
==== e(  10) =    -3.48499 eV ==== 
     psi = 0.189*[#   2]+0.189*[#  15]+0.143*[#  27]+0.143*[#  31]+0.143*[#  35]
          +0.143*[#  39]+0.011*[#   1]+0.011*[#  14]+0.006*[#  28]+0.006*[#  32]
          +0.006*[#  36]+0.006*[#  40]
    |psi|^2 = 0.999
==== e(  11) =    -2.66524 eV ==== 
     psi = 0.222*[#   6]+0.222*[#  19]+0.133*[#  27]+0.133*[#  31]+0.133*[#  35]
          +0.133*[#  39]+0.010*[#   3]+0.010*[#  16]
    |psi|^2 = 0.998
==== e(  12) =    -2.17013 eV ==== 
     psi = 0.181*[#   6]+0.181*[#  19]+0.154*[#  27]+0.154*[#  31]+0.154*[#  35]
          +0.154*[#  39]+0.011*[#   3]+0.011*[#  16]
    |psi|^2 = 0.999
==== e(  13) =     4.30757 eV ==== 
     psi = 0.159*[#  28]+0.159*[#  32]+0.159*[#  36]+0.159*[#  40]+0.130*[#   9]
          +0.130*[#  22]+0.016*[#   2]+0.016*[#  15]+0.012*[#   1]+0.012*[#  14]
          +0.010*[#  27]+0.010*[#  31]+0.010*[#  35]+0.010*[#  39]
    |psi|^2 = 0.991
==== e(  14) =     5.42678 eV ==== 
     psi = 0.203*[#   9]+0.203*[#  22]+0.107*[#  28]+0.107*[#  32]+0.107*[#  36]
          +0.107*[#  40]+0.023*[#  27]+0.023*[#  31]+0.023*[#  35]+0.023*[#  39]
          +0.020*[#   2]+0.020*[#  15]+0.011*[#   1]+0.011*[#  14]
    |psi|^2 = 0.987
==== e(  15) =     7.55138 eV ==== 
     psi = 0.231*[#  28]+0.231*[#  32]+0.231*[#  36]+0.231*[#  40]+0.019*[#   6]
          +0.019*[#  19]+0.005*[#  27]+0.005*[#  31]+0.005*[#  35]+0.005*[#  39]
          +0.004*[#   3]+0.004*[#  16]+0.001*[#  10]+0.001*[#  11]+0.001*[#  23]
          +0.001*[#  24]
    |psi|^2 = 0.996
==== e(  16) =     8.10193 eV ==== 
     psi = 0.166*[#  12]+0.166*[#  13]+0.166*[#  25]+0.166*[#  26]+0.041*[#  29]
          +0.041*[#  30]+0.041*[#  33]+0.041*[#  34]+0.041*[#  37]+0.041*[#  38]
          +0.041*[#  41]+0.041*[#  42]
    |psi|^2 = 0.992
==== e(  17) =     8.11692 eV ==== 
     psi = 0.166*[#  12]+0.166*[#  13]+0.166*[#  25]+0.166*[#  26]+0.041*[#  29]
          +0.041*[#  30]+0.041*[#  33]+0.041*[#  34]+0.041*[#  37]+0.041*[#  38]
          +0.041*[#  41]+0.041*[#  42]
    |psi|^2 = 0.992
==== e(  18) =     8.11795 eV ==== 
     psi = 0.168*[#  12]+0.168*[#  13]+0.168*[#  25]+0.168*[#  26]+0.040*[#  29]
          +0.040*[#  30]+0.040*[#  33]+0.040*[#  34]+0.040*[#  37]+0.040*[#  38]
          +0.040*[#  41]+0.040*[#  42]
    |psi|^2 = 0.991
==== e(  19) =     8.13281 eV ==== 
     psi = 0.168*[#  12]+0.168*[#  13]+0.168*[#  25]+0.168*[#  26]+0.040*[#  29]
          +0.040*[#  30]+0.040*[#  33]+0.040*[#  34]+0.040*[#  37]+0.040*[#  38]
          +0.040*[#  41]+0.040*[#  42]
    |psi|^2 = 0.991
==== e(  20) =     9.14445 eV ==== 
     psi = 0.137*[#  10]+0.137*[#  11]+0.137*[#  23]+0.137*[#  24]+0.053*[#  29]
          +0.053*[#  30]+0.053*[#  33]+0.053*[#  34]+0.053*[#  37]+0.053*[#  38]
          +0.053*[#  41]+0.053*[#  42]+0.004*[#  28]+0.004*[#  32]+0.004*[#  36]
          +0.004*[#  40]
    |psi|^2 = 0.989
==== e(  21) =     9.15975 eV ==== 
     psi = 0.139*[#  10]+0.139*[#  11]+0.139*[#  23]+0.139*[#  24]+0.054*[#  29]
          +0.054*[#  30]+0.054*[#  33]+0.054*[#  34]+0.054*[#  37]+0.054*[#  38]
          +0.054*[#  41]+0.054*[#  42]
    |psi|^2 = 0.989
==== e(  22) =     9.21392 eV ==== 
     psi = 0.143*[#  10]+0.143*[#  11]+0.143*[#  23]+0.143*[#  24]+0.052*[#  29]
          +0.052*[#  30]+0.052*[#  33]+0.052*[#  34]+0.052*[#  37]+0.052*[#  38]
          +0.052*[#  41]+0.052*[#  42]
    |psi|^2 = 0.988
==== e(  23) =     9.22317 eV ==== 
     psi = 0.141*[#  10]+0.141*[#  11]+0.141*[#  23]+0.141*[#  24]+0.052*[#  29]
          +0.052*[#  30]+0.052*[#  33]+0.052*[#  34]+0.052*[#  37]+0.052*[#  38]
          +0.052*[#  41]+0.052*[#  42]+0.002*[#  28]+0.002*[#  32]+0.002*[#  36]
          +0.002*[#  40]
    |psi|^2 = 0.988
==== e(  24) =     9.93917 eV ==== 
     psi = 0.332*[#   9]+0.332*[#  22]+0.074*[#  28]+0.074*[#  32]+0.074*[#  36]
          +0.074*[#  40]+0.003*[#   2]+0.003*[#  15]
    |psi|^2 = 0.970
==== e(  25) =    10.01178 eV ==== 
     psi = 0.238*[#  28]+0.238*[#  32]+0.238*[#  36]+0.238*[#  40]+0.004*[#   3]
          +0.004*[#  16]+0.002*[#  27]+0.002*[#  31]+0.002*[#  35]+0.002*[#  39]
          +0.001*[#  29]+0.001*[#  30]+0.001*[#  33]+0.001*[#  34]+0.001*[#  37]
          +0.001*[#  38]+0.001*[#  41]+0.001*[#  42]+0.001*[#   6]+0.001*[#  10]
          +0.001*[#  11]+0.001*[#  19]+0.001*[#  23]+0.001*[#  24]
    |psi|^2 = 0.989
==== e(  26) =    11.13404 eV ==== 
     psi = 0.285*[#   9]+0.285*[#  22]+0.088*[#  28]+0.088*[#  32]+0.088*[#  36]
          +0.088*[#  40]+0.014*[#  27]+0.014*[#  31]+0.014*[#  35]+0.014*[#  39]
          +0.004*[#   2]+0.004*[#  15]
    |psi|^2 = 0.993
==== e(  27) =    13.36672 eV ==== 
     psi = 0.105*[#  10]+0.105*[#  11]+0.105*[#  23]+0.105*[#  24]+0.069*[#  29]
          +0.069*[#  30]+0.069*[#  33]+0.069*[#  34]+0.069*[#  37]+0.069*[#  38]
          +0.069*[#  41]+0.069*[#  42]
    |psi|^2 = 0.974
==== e(  28) =    13.37878 eV ==== 
     psi = 0.104*[#  10]+0.104*[#  11]+0.104*[#  23]+0.104*[#  24]+0.070*[#  29]
          +0.070*[#  30]+0.070*[#  33]+0.070*[#  34]+0.070*[#  37]+0.070*[#  38]
          +0.070*[#  41]+0.070*[#  42]
    |psi|^2 = 0.974
==== e(  29) =    13.39997 eV ==== 
     psi = 0.100*[#  10]+0.100*[#  11]+0.100*[#  23]+0.100*[#  24]+0.071*[#  29]
          +0.071*[#  30]+0.071*[#  33]+0.071*[#  34]+0.071*[#  37]+0.071*[#  38]
          +0.071*[#  41]+0.071*[#  42]
    |psi|^2 = 0.969
==== e(  30) =    13.41577 eV ==== 
     psi = 0.100*[#  10]+0.100*[#  11]+0.100*[#  23]+0.100*[#  24]+0.071*[#  29]
          +0.071*[#  30]+0.071*[#  33]+0.071*[#  34]+0.071*[#  37]+0.071*[#  38]
          +0.071*[#  41]+0.071*[#  42]
    |psi|^2 = 0.969

 k =   0.0384900179  0.0000000000  0.0000000000
==== e(   1) =   -50.21293 eV ==== 
     psi = 0.476*[#   1]+0.476*[#  14]+0.008*[#   2]+0.008*[#  15]+0.004*[#  28]
          +0.004*[#  32]+0.004*[#  36]+0.004*[#  40]+0.002*[#   7]+0.002*[#   8]
          +0.002*[#  20]+0.002*[#  21]+0.002*[#   9]+0.002*[#  22]
    |psi|^2 = 1.000
==== e(   2) =   -50.21292 eV ==== 
     psi = 0.475*[#   1]+0.475*[#  14]+0.008*[#   2]+0.008*[#  15]+0.005*[#  28]
          +0.005*[#  32]+0.005*[#  36]+0.005*[#  40]+0.002*[#   7]+0.002*[#   8]
          +0.002*[#  20]+0.002*[#  21]+0.002*[#   9]+0.002*[#  22]
    |psi|^2 = 1.000
==== e(   3) =   -24.41731 eV ==== 
     psi = 0.486*[#   3]+0.486*[#  16]+0.005*[#   6]+0.005*[#  19]+0.002*[#  28]
          +0.002*[#  32]+0.002*[#  36]+0.002*[#  40]+0.002*[#  27]+0.002*[#  31]
          +0.002*[#  35]+0.002*[#  39]
    |psi|^2 = 1.000
==== e(   4) =   -24.41729 eV ==== 
     psi = 0.485*[#   3]+0.485*[#  16]+0.006*[#   6]+0.006*[#  19]+0.002*[#  27]
          +0.002*[#  28]+0.002*[#  31]+0.002*[#  32]+0.002*[#  35]+0.002*[#  36]
          +0.002*[#  39]+0.002*[#  40]
    |psi|^2 = 1.000
==== e(   5) =   -24.10262 eV ==== 
     psi = 0.242*[#   4]+0.242*[#   5]+0.242*[#  17]+0.242*[#  18]+0.007*[#   7]
          +0.007*[#   8]+0.007*[#  20]+0.007*[#  21]
    |psi|^2 = 1.000
==== e(   6) =   -24.10261 eV ==== 
     psi = 0.242*[#   4]+0.242*[#   5]+0.242*[#  17]+0.242*[#  18]+0.007*[#   7]
          +0.007*[#   8]+0.007*[#  20]+0.007*[#  21]
    |psi|^2 = 1.000
==== e(   7) =   -24.09906 eV ==== 
     psi = 0.241*[#   4]+0.241*[#   5]+0.241*[#  17]+0.241*[#  18]+0.008*[#   7]
          +0.008*[#   8]+0.008*[#  20]+0.008*[#  21]
    |psi|^2 = 1.000
==== e(   8) =   -24.09905 eV ==== 
     psi = 0.241*[#   4]+0.241*[#   5]+0.241*[#  17]+0.241*[#  18]+0.008*[#   7]
          +0.008*[#   8]+0.008*[#  20]+0.008*[#  21]
    |psi|^2 = 1.000
==== e(   9) =    -3.78431 eV ==== 
     psi = 0.199*[#   2]+0.199*[#  15]+0.140*[#  27]+0.140*[#  31]+0.140*[#  35]
          +0.140*[#  39]+0.009*[#   1]+0.009*[#  14]+0.004*[#   7]+0.004*[#   8]
          +0.004*[#  20]+0.004*[#  21]+0.002*[#   9]+0.002*[#  22]
    |psi|^2 = 0.999
==== e(  10) =    -3.47222 eV ==== 
     psi = 0.185*[#   2]+0.185*[#  15]+0.142*[#  27]+0.142*[#  31]+0.142*[#  35]
          +0.142*[#  39]+0.011*[#   1]+0.011*[#  14]+0.006*[#  28]+0.006*[#  32]
          +0.006*[#  36]+0.006*[#  40]+0.003*[#   7]+0.003*[#   8]+0.003*[#  20]
          +0.003*[#  21]
    |psi|^2 = 0.999
==== e(  11) =    -2.65864 eV ==== 
     psi = 0.221*[#   6]+0.221*[#  19]+0.134*[#  27]+0.134*[#  31]+0.134*[#  35]
          +0.134*[#  39]+0.010*[#   3]+0.010*[#  16]
    |psi|^2 = 0.998
==== e(  12) =    -2.16520 eV ==== 
     psi = 0.179*[#   6]+0.179*[#  19]+0.154*[#  27]+0.154*[#  31]+0.154*[#  35]
          +0.154*[#  39]+0.011*[#   3]+0.011*[#  16]
    |psi|^2 = 0.999
==== e(  13) =     4.32284 eV ==== 
     psi = 0.159*[#  28]+0.159*[#  32]+0.159*[#  36]+0.159*[#  40]+0.129*[#   9]
          +0.129*[#  22]+0.016*[#   2]+0.016*[#  15]+0.012*[#   1]+0.012*[#  14]
          +0.010*[#  27]+0.010*[#  31]+0.010*[#  35]+0.010*[#  39]
    |psi|^2 = 0.991
==== e(  14) =     5.44189 eV ==== 
     psi = 0.202*[#   9]+0.202*[#  22]+0.107*[#  28]+0.107*[#  32]+0.107*[#  36]
          +0.107*[#  40]+0.023*[#  27]+0.023*[#  31]+0.023*[#  35]+0.023*[#  39]
          +0.020*[#   2]+0.020*[#  15]+0.011*[#   1]+0.011*[#  14]
    |psi|^2 = 0.987
==== e(  15) =     7.52934 eV ==== 
     psi = 0.226*[#  28]+0.226*[#  32]+0.226*[#  36]+0.226*[#  40]+0.020*[#   6]
          +0.020*[#  19]+0.005*[#  10]+0.005*[#  11]+0.005*[#  23]+0.005*[#  24]
          +0.005*[#  27]+0.005*[#  31]+0.005*[#  35]+0.005*[#  39]+0.004*[#   3]
          +0.004*[#  16]
    |psi|^2 = 0.996
==== e(  16) =     8.07024 eV ==== 
     psi = 0.164*[#  12]+0.164*[#  13]+0.164*[#  25]+0.164*[#  26]+0.041*[#  29]
          +0.041*[#  30]+0.041*[#  33]+0.041*[#  34]+0.041*[#  37]+0.041*[#  38]
          +0.041*[#  41]+0.041*[#  42]+0.002*[#   2]+0.002*[#  15]
    |psi|^2 = 0.992
==== e(  17) =     8.08744 eV ==== 
     psi = 0.167*[#  12]+0.167*[#  13]+0.167*[#  25]+0.167*[#  26]+0.040*[#  29]
          +0.040*[#  30]+0.040*[#  33]+0.040*[#  34]+0.040*[#  37]+0.040*[#  38]
          +0.040*[#  41]+0.040*[#  42]+0.001*[#   2]+0.001*[#  15]
    |psi|^2 = 0.991
==== e(  18) =     8.12979 eV ==== 
     psi = 0.166*[#  12]+0.166*[#  13]+0.166*[#  25]+0.166*[#  26]+0.041*[#  29]
          +0.041*[#  30]+0.041*[#  33]+0.041*[#  34]+0.041*[#  37]+0.041*[#  38]
          +0.041*[#  41]+0.041*[#  42]
    |psi|^2 = 0.992
==== e(  19) =     8.14654 eV ==== 
     psi = 0.168*[#  12]+0.168*[#  13]+0.168*[#  25]+0.168*[#  26]+0.040*[#  29]
          +0.040*[#  30]+0.040*[#  33]+0.040*[#  34]+0.040*[#  37]+0.040*[#  38]
          +0.040*[#  41]+0.040*[#  42]
    |psi|^2 = 0.991
==== e(  20) =     9.08087 eV ==== 
     psi = 0.133*[#  10]+0.133*[#  11]+0.133*[#  23]+0.133*[#  24]+0.051*[#  29]
          +0.051*[#  30]+0.051*[#  33]+0.051*[#  34]+0.051*[#  37]+0.051*[#  38]
          +0.051*[#  41]+0.051*[#  42]+0.012*[#  28]+0.012*[#  32]+0.012*[#  36]
          +0.012*[#  40]
    |psi|^2 = 0.989
==== e(  21) =     9.13753 eV ==== 
     psi = 0.139*[#  10]+0.139*[#  11]+0.139*[#  23]+0.139*[#  24]+0.054*[#  29]
          +0.054*[#  30]+0.054*[#  33]+0.054*[#  34]+0.054*[#  37]+0.054*[#  38]
          +0.054*[#  41]+0.054*[#  42]
    |psi|^2 = 0.989
==== e(  22) =     9.19247 eV ==== 
     psi = 0.143*[#  10]+0.143*[#  11]+0.143*[#  23]+0.143*[#  24]+0.052*[#  29]
          +0.052*[#  30]+0.052*[#  33]+0.052*[#  34]+0.052*[#  37]+0.052*[#  38]
          +0.052*[#  41]+0.052*[#  42]
    |psi|^2 = 0.988
==== e(  23) =     9.22870 eV ==== 
     psi = 0.135*[#  10]+0.135*[#  11]+0.135*[#  23]+0.135*[#  24]+0.052*[#  29]
          +0.052*[#  30]+0.052*[#  33]+0.052*[#  34]+0.052*[#  37]+0.052*[#  38]
          +0.052*[#  41]+0.052*[#  42]+0.006*[#  28]+0.006*[#  32]+0.006*[#  36]
          +0.006*[#  40]
    |psi|^2 = 0.987
==== e(  24) =     9.94220 eV ==== 
     psi = 0.332*[#   9]+0.332*[#  22]+0.074*[#  28]+0.074*[#  32]+0.074*[#  36]
          +0.074*[#  40]+0.002*[#   2]+0.002*[#  15]+0.001*[#   7]+0.001*[#   8]
          +0.001*[#  20]+0.001*[#  21]
    |psi|^2 = 0.971
==== e(  25) =    10.04421 eV ==== 
     psi = 0.229*[#  28]+0.229*[#  32]+0.229*[#  36]+0.229*[#  40]+0.005*[#  29]
          +0.005*[#  30]+0.005*[#  33]+0.005*[#  34]+0.005*[#  37]+0.005*[#  38]
          +0.005*[#  41]+0.005*[#  42]+0.004*[#   3]+0.004*[#  16]+0.004*[#  10]
          +0.004*[#  11]+0.004*[#  23]+0.004*[#  24]+0.003*[#  27]+0.003*[#  31]
          +0.003*[#  35]+0.003*[#  39]+0.002*[#   6]+0.002*[#  19]
    |psi|^2 = 0.989
==== e(  26) =    11.11072 eV ==== 
     psi = 0.283*[#   9]+0.283*[#  22]+0.087*[#  28]+0.087*[#  32]+0.087*[#  36]
          +0.087*[#  40]+0.014*[#  27]+0.014*[#  31]+0.014*[#  35]+0.014*[#  39]
          +0.004*[#   2]+0.004*[#  15]+0.002*[#  12]+0.002*[#  13]+0.002*[#  25]
          +0.002*[#  26]
    |psi|^2 = 0.993
==== e(  27) =    13.35132 eV ==== 
     psi = 0.106*[#  10]+0.106*[#  11]+0.106*[#  23]+0.106*[#  24]+0.067*[#  29]
          +0.067*[#  30]+0.067*[#  33]+0.067*[#  34]+0.067*[#  37]+0.067*[#  38]
          +0.067*[#  41]+0.067*[#  42]+0.001*[#  27]+0.001*[#  28]+0.001*[#  31]
          +0.001*[#  32]+0.001*[#  35]+0.001*[#  36]+0.001*[#  39]+0.001*[#  40]
          
    |psi|^2 = 0.973
==== e(  28) =    13.37950 eV ==== 
     psi = 0.102*[#  10]+0.102*[#  11]+0.102*[#  23]+0.102*[#  24]+0.069*[#  29]
          +0.069*[#  30]+0.069*[#  33]+0.069*[#  34]+0.069*[#  37]+0.069*[#  38]
          +0.069*[#  41]+0.069*[#  42]+0.002*[#  27]+0.002*[#  31]+0.002*[#  35]
          +0.002*[#  39]
    |psi|^2 = 0.969
==== e(  29) =    13.39839 eV ==== 
     psi = 0.105*[#  10]+0.105*[#  11]+0.105*[#  23]+0.105*[#  24]+0.069*[#  29]
          +0.069*[#  30]+0.069*[#  33]+0.069*[#  34]+0.069*[#  37]+0.069*[#  38]
          +0.069*[#  41]+0.069*[#  42]
    |psi|^2 = 0.974
==== e(  30) =    13.44126 eV ==== 
     psi = 0.100*[#  10]+0.100*[#  11]+0.100*[#  23]+0.100*[#  24]+0.071*[#  29]
          +0.071*[#  30]+0.071*[#  33]+0.071*[#  34]+0.071*[#  37]+0.071*[#  38]
          +0.071*[#  41]+0.071*[#  42]
    |psi|^2 = 0.970

 k =   0.0577350269  0.0000000000  0.0000000000
==== e(   1) =   -50.21235 eV ==== 
     psi = 0.473*[#   1]+0.473*[#  14]+0.007*[#   2]+0.007*[#  15]+0.004*[#  28]
          +0.004*[#  32]+0.004*[#  36]+0.004*[#  40]+0.004*[#   7]+0.004*[#   8]
          +0.004*[#  20]+0.004*[#  21]+0.002*[#   9]+0.002*[#  22]
    |psi|^2 = 1.000
==== e(   2) =   -50.21235 eV ==== 
     psi = 0.473*[#   1]+0.473*[#  14]+0.007*[#   2]+0.007*[#  15]+0.005*[#  28]
          +0.005*[#  32]+0.005*[#  36]+0.005*[#  40]+0.004*[#   7]+0.004*[#   8]
          +0.004*[#  20]+0.004*[#  21]+0.002*[#   9]+0.002*[#  22]
    |psi|^2 = 1.000
==== e(   3) =   -24.41620 eV ==== 
     psi = 0.486*[#   3]+0.486*[#  16]+0.005*[#   6]+0.005*[#  19]+0.002*[#  27]
          +0.002*[#  28]+0.002*[#  31]+0.002*[#  32]+0.002*[#  35]+0.002*[#  36]
          +0.002*[#  39]+0.002*[#  40]
    |psi|^2 = 1.000
==== e(   4) =   -24.41618 eV ==== 
     psi = 0.485*[#   3]+0.485*[#  16]+0.005*[#   6]+0.005*[#  19]+0.002*[#  27]
          +0.002*[#  28]+0.002*[#  31]+0.002*[#  32]+0.002*[#  35]+0.002*[#  36]
          +0.002*[#  39]+0.002*[#  40]
    |psi|^2 = 1.000
==== e(   5) =   -24.10835 eV ==== 
     psi = 0.242*[#   4]+0.242*[#   5]+0.242*[#  17]+0.242*[#  18]+0.006*[#   7]
          +0.006*[#   8]+0.006*[#  20]+0.006*[#  21]+0.001*[#   2]+0.001*[#  15]
          
    |psi|^2 = 1.000
==== e(   6) =   -24.10833 eV ==== 
     psi = 0.242*[#   4]+0.242*[#   5]+0.242*[#  17]+0.242*[#  18]+0.006*[#   7]
          +0.006*[#   8]+0.006*[#  20]+0.006*[#  21]+0.001*[#   2]+0.001*[#  15]
          
    |psi|^2 = 1.000
==== e(   7) =   -24.10036 eV ==== 
     psi = 0.242*[#   4]+0.242*[#   5]+0.242*[#  17]+0.242*[#  18]+0.008*[#   7]
          +0.008*[#   8]+0.008*[#  20]+0.008*[#  21]
    |psi|^2 = 1.000
==== e(   8) =   -24.10034 eV ==== 
     psi = 0.242*[#   4]+0.242*[#   5]+0.242*[#  17]+0.242*[#  18]+0.008*[#   7]
          +0.008*[#   8]+0.008*[#  20]+0.008*[#  21]
    |psi|^2 = 1.000
==== e(   9) =    -3.76277 eV ==== 
     psi = 0.192*[#   2]+0.192*[#  15]+0.139*[#  27]+0.139*[#  31]+0.139*[#  35]
          +0.139*[#  39]+0.009*[#   1]+0.009*[#  14]+0.008*[#   7]+0.008*[#   8]
          +0.008*[#  20]+0.008*[#  21]+0.002*[#   9]+0.002*[#  22]
    |psi|^2 = 0.999
==== e(  10) =    -3.45102 eV ==== 
     psi = 0.178*[#   2]+0.178*[#  15]+0.142*[#  27]+0.142*[#  31]+0.142*[#  35]
          +0.142*[#  39]+0.011*[#   1]+0.011*[#  14]+0.007*[#   7]+0.007*[#   8]
          +0.007*[#  20]+0.007*[#  21]+0.006*[#  28]+0.006*[#  32]+0.006*[#  36]
          +0.006*[#  40]
    |psi|^2 = 0.999
==== e(  11) =    -2.64766 eV ==== 
     psi = 0.219*[#   6]+0.219*[#  19]+0.134*[#  27]+0.134*[#  31]+0.134*[#  35]
          +0.134*[#  39]+0.009*[#   3]+0.009*[#  16]
    |psi|^2 = 0.998
==== e(  12) =    -2.15703 eV ==== 
     psi = 0.177*[#   6]+0.177*[#  19]+0.155*[#  27]+0.155*[#  31]+0.155*[#  35]
          +0.155*[#  39]+0.010*[#   3]+0.010*[#  16]
    |psi|^2 = 0.999
==== e(  13) =     4.34807 eV ==== 
     psi = 0.159*[#  28]+0.159*[#  32]+0.159*[#  36]+0.159*[#  40]+0.128*[#   9]
          +0.128*[#  22]+0.016*[#   2]+0.016*[#  15]+0.012*[#   1]+0.012*[#  14]
          +0.010*[#  27]+0.010*[#  31]+0.010*[#  35]+0.010*[#  39]
    |psi|^2 = 0.992
==== e(  14) =     5.46680 eV ==== 
     psi = 0.201*[#   9]+0.201*[#  22]+0.107*[#  28]+0.107*[#  32]+0.107*[#  36]
          +0.107*[#  40]+0.023*[#  27]+0.023*[#  31]+0.023*[#  35]+0.023*[#  39]
          +0.020*[#   2]+0.020*[#  15]+0.010*[#   1]+0.010*[#  14]
    |psi|^2 = 0.987
==== e(  15) =     7.49372 eV ==== 
     psi = 0.219*[#  28]+0.219*[#  32]+0.219*[#  36]+0.219*[#  40]+0.020*[#   6]
          +0.020*[#  19]+0.011*[#  10]+0.011*[#  11]+0.011*[#  23]+0.011*[#  24]
          +0.004*[#  27]+0.004*[#  31]+0.004*[#  35]+0.004*[#  39]+0.003*[#   3]
          +0.003*[#  16]+0.002*[#  29]+0.002*[#  30]+0.002*[#  33]+0.002*[#  34]
          +0.002*[#  37]+0.002*[#  38]+0.002*[#  41]+0.002*[#  42]
    |psi|^2 = 0.996
==== e(  16) =     8.01847 eV ==== 
     psi = 0.162*[#  12]+0.162*[#  13]+0.162*[#  25]+0.162*[#  26]+0.041*[#  29]
          +0.041*[#  30]+0.041*[#  33]+0.041*[#  34]+0.041*[#  37]+0.041*[#  38]
          +0.041*[#  41]+0.041*[#  42]+0.003*[#   2]+0.003*[#  15]+0.001*[#  27]
          +0.001*[#  31]+0.001*[#  35]+0.001*[#  39]
    |psi|^2 = 0.992
==== e(  17) =     8.03771 eV ==== 
     psi = 0.164*[#  12]+0.164*[#  13]+0.164*[#  25]+0.164*[#  26]+0.040*[#  29]
          +0.040*[#  30]+0.040*[#  33]+0.040*[#  34]+0.040*[#  37]+0.040*[#  38]
          +0.040*[#  41]+0.040*[#  42]+0.003*[#   2]+0.003*[#  15]+0.001*[#  27]
          +0.001*[#  31]+0.001*[#  35]+0.001*[#  39]
    |psi|^2 = 0.991
==== e(  18) =     8.15114 eV ==== 
     psi = 0.164*[#  12]+0.164*[#  13]+0.164*[#  25]+0.164*[#  26]+0.041*[#  29]
          +0.041*[#  30]+0.041*[#  33]+0.041*[#  34]+0.041*[#  37]+0.041*[#  38]
          +0.041*[#  41]+0.041*[#  42]
    |psi|^2 = 0.992
==== e(  19) =     8.16925 eV ==== 
     psi = 0.166*[#  12]+0.166*[#  13]+0.166*[#  25]+0.166*[#  26]+0.040*[#  29]
          +0.040*[#  30]+0.040*[#  33]+0.040*[#  34]+0.040*[#  37]+0.040*[#  38]
          +0.040*[#  41]+0.040*[#  42]
    |psi|^2 = 0.991
==== e(  20) =     8.98682 eV ==== 
     psi = 0.127*[#  10]+0.127*[#  11]+0.127*[#  23]+0.127*[#  24]+0.049*[#  29]
          +0.049*[#  30]+0.049*[#  33]+0.049*[#  34]+0.049*[#  37]+0.049*[#  38]
          +0.049*[#  41]+0.049*[#  42]+0.021*[#  28]+0.021*[#  32]+0.021*[#  36]
          +0.021*[#  40]+0.001*[#   6]+0.001*[#  19]
    |psi|^2 = 0.989
==== e(  21) =     9.10137 eV ==== 
     psi = 0.138*[#  10]+0.138*[#  11]+0.138*[#  23]+0.138*[#  24]+0.054*[#  29]
          +0.054*[#  30]+0.054*[#  33]+0.054*[#  34]+0.054*[#  37]+0.054*[#  38]
          +0.054*[#  41]+0.054*[#  42]
    |psi|^2 = 0.989
==== e(  22) =     9.15753 eV ==== 
     psi = 0.142*[#  10]+0.142*[#  11]+0.142*[#  23]+0.142*[#  24]+0.052*[#  29]
          +0.052*[#  30]+0.052*[#  33]+0.052*[#  34]+0.052*[#  37]+0.052*[#  38]
          +0.052*[#  41]+0.052*[#  42]
    |psi|^2 = 0.988
==== e(  23) =     9.23622 eV ==== 
     psi = 0.126*[#  10]+0.126*[#  11]+0.126*[#  23]+0.126*[#  24]+0.053*[#  29]
          +0.053*[#  30]+0.053*[#  33]+0.053*[#  34]+0.053*[#  37]+0.053*[#  38]
          +0.053*[#  41]+0.053*[#  42]+0.014*[#  28]+0.014*[#  32]+0.014*[#  36]
          +0.014*[#  40]
    |psi|^2 = 0.986
==== e(  24) =     9.94686 eV ==== 
     psi = 0.332*[#   9]+0.332*[#  22]+0.072*[#  28]+0.072*[#  32]+0.072*[#  36]
          +0.072*[#  40]+0.002*[#   7]+0.002*[#   8]+0.002*[#  20]+0.002*[#  21]
          +0.002*[#   2]+0.002*[#  15]
    |psi|^2 = 0.972
==== e(  25) =    10.08508 eV ==== 
     psi = 0.218*[#  28]+0.218*[#  32]+0.218*[#  36]+0.218*[#  40]+0.009*[#  29]
          +0.009*[#  30]+0.009*[#  33]+0.009*[#  34]+0.009*[#  37]+0.009*[#  38]
          +0.009*[#  41]+0.009*[#  42]+0.005*[#  10]+0.005*[#  11]+0.005*[#  23]
          +0.005*[#  24]+0.004*[#   3]+0.004*[#  16]+0.003*[#  27]+0.003*[#  31]
          +0.003*[#  35]+0.003*[#  39]+0.002*[#   6]+0.002*[#  19]
    |psi|^2 = 0.989
==== e(  26) =    11.07175 eV ==== 
     psi = 0.279*[#   9]+0.279*[#  22]+0.084*[#  28]+0.084*[#  32]+0.084*[#  36]
          +0.084*[#  40]+0.014*[#  27]+0.014*[#  31]+0.014*[#  35]+0.014*[#  39]
          +0.005*[#   2]+0.005*[#  15]+0.004*[#  12]+0.004*[#  13]+0.004*[#  25]
          +0.004*[#  26]+0.002*[#  29]+0.002*[#  30]+0.002*[#  33]+0.002*[#  34]
          +0.002*[#  37]+0.002*[#  38]+0.002*[#  41]+0.002*[#  42]
    |psi|^2 = 0.993
==== e(  27) =    13.32880 eV ==== 
     psi = 0.109*[#  10]+0.109*[#  11]+0.109*[#  23]+0.109*[#  24]+0.064*[#  29]
          +0.064*[#  30]+0.064*[#  33]+0.064*[#  34]+0.064*[#  37]+0.064*[#  38]
          +0.064*[#  41]+0.064*[#  42]+0.003*[#  27]+0.003*[#  31]+0.003*[#  35]
          +0.003*[#  39]+0.003*[#  28]+0.003*[#  32]+0.003*[#  36]+0.003*[#  40]
          
    |psi|^2 = 0.971
==== e(  28) =    13.34885 eV ==== 
     psi = 0.106*[#  10]+0.106*[#  11]+0.106*[#  23]+0.106*[#  24]+0.066*[#  29]
          +0.066*[#  30]+0.066*[#  33]+0.066*[#  34]+0.066*[#  37]+0.066*[#  38]
          +0.066*[#  41]+0.066*[#  42]+0.004*[#  27]+0.004*[#  31]+0.004*[#  35]
          +0.004*[#  39]+0.001*[#   6]+0.001*[#  19]
    |psi|^2 = 0.970
==== e(  29) =    13.41834 eV ==== 
     psi = 0.079*[#  12]+0.079*[#  13]+0.079*[#  25]+0.079*[#  26]+0.078*[#  29]
          +0.078*[#  30]+0.078*[#  33]+0.078*[#  34]+0.078*[#  37]+0.078*[#  38]
          +0.078*[#  41]+0.078*[#  42]+0.009*[#   9]+0.009*[#  22]+0.004*[#  28]
          +0.004*[#  32]+0.004*[#  36]+0.004*[#  40]+0.002*[#   7]+0.002*[#   8]
          +0.002*[#  20]+0.002*[#  21]
    |psi|^2 = 0.987
==== e(  30) =    13.41917 eV ==== 
     psi = 0.081*[#  12]+0.081*[#  13]+0.081*[#  25]+0.081*[#  26]+0.081*[#  29]
          +0.081*[#  30]+0.081*[#  33]+0.081*[#  34]+0.081*[#  37]+0.081*[#  38]
          +0.081*[#  41]+0.081*[#  42]+0.003*[#   7]+0.003*[#   8]+0.003*[#  20]
          +0.003*[#  21]
    |psi|^2 = 0.988

 k =   0.0769800359  0.0000000000  0.0000000000
==== e(   1) =   -50.21156 eV ==== 
     psi = 0.470*[#   1]+0.470*[#  14]+0.007*[#   7]+0.007*[#   8]+0.007*[#  20]
          +0.007*[#  21]+0.005*[#   2]+0.005*[#  15]+0.004*[#  28]+0.004*[#  32]
          +0.004*[#  36]+0.004*[#  40]+0.001*[#   9]+0.001*[#  22]
    |psi|^2 = 1.000
==== e(   2) =   -50.21155 eV ==== 
     psi = 0.470*[#   1]+0.470*[#  14]+0.007*[#   7]+0.007*[#   8]+0.007*[#  20]
          +0.007*[#  21]+0.005*[#   2]+0.005*[#  15]+0.005*[#  28]+0.005*[#  32]
          +0.005*[#  36]+0.005*[#  40]+0.001*[#   9]+0.001*[#  22]
    |psi|^2 = 1.000
==== e(   3) =   -24.41465 eV ==== 
     psi = 0.486*[#   3]+0.486*[#  16]+0.005*[#   6]+0.005*[#  19]+0.002*[#  27]
          +0.002*[#  28]+0.002*[#  31]+0.002*[#  32]+0.002*[#  35]+0.002*[#  36]
          +0.002*[#  39]+0.002*[#  40]
    |psi|^2 = 1.000
==== e(   4) =   -24.41462 eV ==== 
     psi = 0.485*[#   3]+0.485*[#  16]+0.005*[#   6]+0.005*[#  19]+0.002*[#  27]
          +0.002*[#  28]+0.002*[#  31]+0.002*[#  32]+0.002*[#  35]+0.002*[#  36]
          +0.002*[#  39]+0.002*[#  40]
    |psi|^2 = 1.000
==== e(   5) =   -24.11623 eV ==== 
     psi = 0.243*[#   4]+0.243*[#   5]+0.243*[#  17]+0.243*[#  18]+0.005*[#   7]
          +0.005*[#   8]+0.005*[#  20]+0.005*[#  21]+0.002*[#   2]+0.002*[#  15]
          
    |psi|^2 = 1.000
==== e(   6) =   -24.11620 eV ==== 
     psi = 0.243*[#   4]+0.243*[#   5]+0.243*[#  17]+0.243*[#  18]+0.005*[#   7]
          +0.005*[#   8]+0.005*[#  20]+0.005*[#  21]+0.002*[#   2]+0.002*[#  15]
          
    |psi|^2 = 1.000
==== e(   7) =   -24.10215 eV ==== 
     psi = 0.242*[#   4]+0.242*[#   5]+0.242*[#  17]+0.242*[#  18]+0.008*[#   7]
          +0.008*[#   8]+0.008*[#  20]+0.008*[#  21]
    |psi|^2 = 1.000
==== e(   8) =   -24.10210 eV ==== 
     psi = 0.242*[#   4]+0.242*[#   5]+0.242*[#  17]+0.242*[#  18]+0.008*[#   7]
          +0.008*[#   8]+0.008*[#  20]+0.008*[#  21]
    |psi|^2 = 1.000
==== e(   9) =    -3.73277 eV ==== 
     psi = 0.182*[#   2]+0.182*[#  15]+0.138*[#  27]+0.138*[#  31]+0.138*[#  35]
          +0.138*[#  39]+0.014*[#   7]+0.014*[#   8]+0.014*[#  20]+0.014*[#  21]
          +0.010*[#   1]+0.010*[#  14]+0.002*[#   9]+0.002*[#  22]
    |psi|^2 = 0.999
==== e(  10) =    -3.42153 eV ==== 
     psi = 0.169*[#   2]+0.169*[#  15]+0.141*[#  27]+0.141*[#  31]+0.141*[#  35]
          +0.141*[#  39]+0.012*[#   7]+0.012*[#   8]+0.012*[#  20]+0.012*[#  21]
          +0.011*[#   1]+0.011*[#  14]+0.006*[#  28]+0.006*[#  32]+0.006*[#  36]
          +0.006*[#  40]
    |psi|^2 = 0.999
==== e(  11) =    -2.63238 eV ==== 
     psi = 0.216*[#   6]+0.216*[#  19]+0.135*[#  27]+0.135*[#  31]+0.135*[#  35]
          +0.135*[#  39]+0.009*[#   3]+0.009*[#  16]+0.001*[#  10]+0.001*[#  11]
          +0.001*[#  23]+0.001*[#  24]
    |psi|^2 = 0.998
==== e(  12) =    -2.14565 eV ==== 
     psi = 0.173*[#   6]+0.173*[#  19]+0.156*[#  27]+0.156*[#  31]+0.156*[#  35]
          +0.156*[#  39]+0.010*[#   3]+0.010*[#  16]+0.002*[#  10]+0.002*[#  11]
          +0.002*[#  23]+0.002*[#  24]
    |psi|^2 = 0.999
==== e(  13) =     4.38295 eV ==== 
     psi = 0.160*[#  28]+0.160*[#  32]+0.160*[#  36]+0.160*[#  40]+0.127*[#   9]
          +0.127*[#  22]+0.016*[#   2]+0.016*[#  15]+0.011*[#   1]+0.011*[#  14]
          +0.010*[#  27]+0.010*[#  31]+0.010*[#  35]+0.010*[#  39]
    |psi|^2 = 0.992
==== e(  14) =     5.50104 eV ==== 
     psi = 0.199*[#   9]+0.199*[#  22]+0.108*[#  28]+0.108*[#  32]+0.108*[#  36]
          +0.108*[#  40]+0.022*[#  27]+0.022*[#  31]+0.022*[#  35]+0.022*[#  39]
          +0.020*[#   2]+0.020*[#  15]+0.010*[#   1]+0.010*[#  14]+0.001*[#  12]
          +0.001*[#  13]+0.001*[#  25]+0.001*[#  26]
    |psi|^2 = 0.987
==== e(  15) =     7.44594 eV ==== 
     psi = 0.209*[#  28]+0.209*[#  32]+0.209*[#  36]+0.209*[#  40]+0.021*[#   6]
          +0.021*[#  19]+0.018*[#  10]+0.018*[#  11]+0.018*[#  23]+0.018*[#  24]
          +0.004*[#  27]+0.004*[#  31]+0.004*[#  35]+0.004*[#  39]+0.003*[#   3]
          +0.003*[#  16]+0.003*[#  29]+0.003*[#  30]+0.003*[#  33]+0.003*[#  34]
          +0.003*[#  37]+0.003*[#  38]+0.003*[#  41]+0.003*[#  42]
    |psi|^2 = 0.996
==== e(  16) =     7.94823 eV ==== 
     psi = 0.158*[#  12]+0.158*[#  13]+0.158*[#  25]+0.158*[#  26]+0.042*[#  29]
          +0.042*[#  30]+0.042*[#  33]+0.042*[#  34]+0.042*[#  37]+0.042*[#  38]
          +0.042*[#  41]+0.042*[#  42]+0.006*[#   2]+0.006*[#  15]+0.002*[#  27]
          +0.002*[#  31]+0.002*[#  35]+0.002*[#  39]
    |psi|^2 = 0.992
==== e(  17) =     7.97039 eV ==== 
     psi = 0.161*[#  12]+0.161*[#  13]+0.161*[#  25]+0.161*[#  26]+0.040*[#  29]
          +0.040*[#  30]+0.040*[#  33]+0.040*[#  34]+0.040*[#  37]+0.040*[#  38]
          +0.040*[#  41]+0.040*[#  42]+0.005*[#   2]+0.005*[#  15]+0.002*[#  27]
          +0.002*[#  31]+0.002*[#  35]+0.002*[#  39]
    |psi|^2 = 0.990
==== e(  18) =     8.18078 eV ==== 
     psi = 0.163*[#  12]+0.163*[#  13]+0.163*[#  25]+0.163*[#  26]+0.042*[#  29]
          +0.042*[#  30]+0.042*[#  33]+0.042*[#  34]+0.042*[#  37]+0.042*[#  38]
          +0.042*[#  41]+0.042*[#  42]+0.001*[#   7]+0.001*[#   8]+0.001*[#  20]
          +0.001*[#  21]
    |psi|^2 = 0.992
==== e(  19) =     8.20074 eV ==== 
     psi = 0.165*[#  12]+0.165*[#  13]+0.165*[#  25]+0.165*[#  26]+0.041*[#  29]
          +0.041*[#  30]+0.041*[#  33]+0.041*[#  34]+0.041*[#  37]+0.041*[#  38]
          +0.041*[#  41]+0.041*[#  42]+0.001*[#   7]+0.001*[#   8]+0.001*[#  20]
          +0.001*[#  21]
    |psi|^2 = 0.991
==== e(  20) =     8.87191 eV ==== 
     psi = 0.123*[#  10]+0.123*[#  11]+0.123*[#  23]+0.123*[#  24]+0.048*[#  29]
          +0.048*[#  30]+0.048*[#  33]+0.048*[#  34]+0.048*[#  37]+0.048*[#  38]
          +0.048*[#  41]+0.048*[#  42]+0.028*[#  28]+0.028*[#  32]+0.028*[#  36]
          +0.028*[#  40]+0.003*[#   6]+0.003*[#  19]
    |psi|^2 = 0.990
==== e(  21) =     9.05250 eV ==== 
     psi = 0.138*[#  10]+0.138*[#  11]+0.138*[#  23]+0.138*[#  24]+0.055*[#  29]
          +0.055*[#  30]+0.055*[#  33]+0.055*[#  34]+0.055*[#  37]+0.055*[#  38]
          +0.055*[#  41]+0.055*[#  42]
    |psi|^2 = 0.989
==== e(  22) =     9.11024 eV ==== 
     psi = 0.142*[#  10]+0.142*[#  11]+0.142*[#  23]+0.142*[#  24]+0.053*[#  29]
          +0.053*[#  30]+0.053*[#  33]+0.053*[#  34]+0.053*[#  37]+0.053*[#  38]
          +0.053*[#  41]+0.053*[#  42]
    |psi|^2 = 0.988
==== e(  23) =     9.24348 eV ==== 
     psi = 0.115*[#  10]+0.115*[#  11]+0.115*[#  23]+0.115*[#  24]+0.054*[#  29]
          +0.054*[#  30]+0.054*[#  33]+0.054*[#  34]+0.054*[#  37]+0.054*[#  38]
          +0.054*[#  41]+0.054*[#  42]+0.023*[#  28]+0.023*[#  32]+0.023*[#  36]
          +0.023*[#  40]
    |psi|^2 = 0.985
==== e(  24) =     9.95258 eV ==== 
     psi = 0.332*[#   9]+0.332*[#  22]+0.071*[#  28]+0.071*[#  32]+0.071*[#  36]
          +0.071*[#  40]+0.004*[#   7]+0.004*[#   8]+0.004*[#  20]+0.004*[#  21]
          +0.001*[#  12]+0.001*[#  13]+0.001*[#  25]+0.001*[#  26]
    |psi|^2 = 0.974
==== e(  25) =    10.12322 eV ==== 
     psi = 0.208*[#  28]+0.208*[#  32]+0.208*[#  36]+0.208*[#  40]+0.013*[#  29]
          +0.013*[#  30]+0.013*[#  33]+0.013*[#  34]+0.013*[#  37]+0.013*[#  38]
          +0.013*[#  41]+0.013*[#  42]+0.006*[#  10]+0.006*[#  11]+0.006*[#  23]
          +0.006*[#  24]+0.004*[#   3]+0.004*[#  16]+0.003*[#  27]+0.003*[#  31]
          +0.003*[#  35]+0.003*[#  39]+0.003*[#   6]+0.003*[#  19]
    |psi|^2 = 0.990
==== e(  26) =    11.01706 eV ==== 
     psi = 0.273*[#   9]+0.273*[#  22]+0.081*[#  28]+0.081*[#  32]+0.081*[#  36]
          +0.081*[#  40]+0.014*[#  27]+0.014*[#  31]+0.014*[#  35]+0.014*[#  39]
          +0.007*[#  12]+0.007*[#  13]+0.007*[#  25]+0.007*[#  26]+0.005*[#   2]
          +0.005*[#  15]+0.003*[#  29]+0.003*[#  30]+0.003*[#  33]+0.003*[#  34]
          +0.003*[#  37]+0.003*[#  38]+0.003*[#  41]+0.003*[#  42]
    |psi|^2 = 0.993
==== e(  27) =    13.29850 eV ==== 
     psi = 0.109*[#  10]+0.109*[#  11]+0.109*[#  23]+0.109*[#  24]+0.062*[#  29]
          +0.062*[#  30]+0.062*[#  33]+0.062*[#  34]+0.062*[#  37]+0.062*[#  38]
          +0.062*[#  41]+0.062*[#  42]+0.006*[#  27]+0.006*[#  31]+0.006*[#  35]
          +0.006*[#  39]+0.002*[#   6]+0.002*[#  19]+0.002*[#  28]+0.002*[#  32]
          +0.002*[#  36]+0.002*[#  40]
    |psi|^2 = 0.968
==== e(  28) =    13.31746 eV ==== 
     psi = 0.112*[#  10]+0.112*[#  11]+0.112*[#  23]+0.112*[#  24]+0.061*[#  29]
          +0.061*[#  30]+0.061*[#  33]+0.061*[#  34]+0.061*[#  37]+0.061*[#  38]
          +0.061*[#  41]+0.061*[#  42]+0.005*[#  27]+0.005*[#  31]+0.005*[#  35]
          +0.005*[#  39]+0.004*[#  28]+0.004*[#  32]+0.004*[#  36]+0.004*[#  40]
          +0.002*[#   6]+0.002*[#  19]
    |psi|^2 = 0.971
==== e(  29) =    13.37688 eV ==== 
     psi = 0.080*[#  12]+0.080*[#  13]+0.080*[#  25]+0.080*[#  26]+0.075*[#  29]
          +0.075*[#  30]+0.075*[#  33]+0.075*[#  34]+0.075*[#  37]+0.075*[#  38]
          +0.075*[#  41]+0.075*[#  42]+0.013*[#   9]+0.013*[#  22]+0.006*[#  28]
          +0.006*[#  32]+0.006*[#  36]+0.006*[#  40]+0.001*[#   7]+0.001*[#   8]
          +0.001*[#  20]+0.001*[#  21]+0.001*[#  27]+0.001*[#  31]+0.001*[#  35]
          +0.001*[#  39]+0.001*[#   2]+0.001*[#  15]
    |psi|^2 = 0.986
==== e(  30) =    13.38437 eV ==== 
     psi = 0.083*[#  12]+0.083*[#  13]+0.083*[#  25]+0.083*[#  26]+0.080*[#  29]
          +0.080*[#  30]+0.080*[#  33]+0.080*[#  34]+0.080*[#  37]+0.080*[#  38]
          +0.080*[#  41]+0.080*[#  42]+0.003*[#   7]+0.003*[#   8]+0.003*[#  20]
          +0.003*[#  21]
    |psi|^2 = 0.987

 k =   0.0962250449  0.0000000000  0.0000000000
==== e(   1) =   -50.21055 eV ==== 
     psi = 0.466*[#   1]+0.466*[#  14]+0.010*[#   7]+0.010*[#   8]+0.010*[#  20]
          +0.010*[#  21]+0.004*[#  28]+0.004*[#  32]+0.004*[#  36]+0.004*[#  40]
          +0.004*[#   2]+0.004*[#  15]+0.001*[#   9]+0.001*[#  22]
    |psi|^2 = 1.000
==== e(   2) =   -50.21055 eV ==== 
     psi = 0.466*[#   1]+0.466*[#  14]+0.009*[#   7]+0.009*[#   8]+0.009*[#  20]
          +0.009*[#  21]+0.005*[#  28]+0.005*[#  32]+0.005*[#  36]+0.005*[#  40]
          +0.004*[#   2]+0.004*[#  15]+0.001*[#   9]+0.001*[#  22]
    |psi|^2 = 1.000
==== e(   3) =   -24.41268 eV ==== 
     psi = 0.486*[#   3]+0.486*[#  16]+0.004*[#   6]+0.004*[#  19]+0.002*[#  27]
          +0.002*[#  28]+0.002*[#  31]+0.002*[#  32]+0.002*[#  35]+0.002*[#  36]
          +0.002*[#  39]+0.002*[#  40]
    |psi|^2 = 1.000
==== e(   4) =   -24.41267 eV ==== 
     psi = 0.486*[#   3]+0.486*[#  16]+0.005*[#   6]+0.005*[#  19]+0.002*[#  27]
          +0.002*[#  28]+0.002*[#  31]+0.002*[#  32]+0.002*[#  35]+0.002*[#  36]
          +0.002*[#  39]+0.002*[#  40]
    |psi|^2 = 1.000
==== e(   5) =   -24.12617 eV ==== 
     psi = 0.243*[#   4]+0.243*[#   5]+0.243*[#  17]+0.243*[#  18]+0.004*[#   7]
          +0.004*[#   8]+0.004*[#  20]+0.004*[#  21]+0.003*[#   2]+0.003*[#  15]
          
    |psi|^2 = 1.000
==== e(   6) =   -24.12615 eV ==== 
     psi = 0.243*[#   4]+0.243*[#   5]+0.243*[#  17]+0.243*[#  18]+0.004*[#   7]
          +0.004*[#   8]+0.004*[#  20]+0.004*[#  21]+0.003*[#   2]+0.003*[#  15]
          
    |psi|^2 = 1.000
==== e(   7) =   -24.10440 eV ==== 
     psi = 0.242*[#   4]+0.242*[#   5]+0.242*[#  17]+0.242*[#  18]+0.007*[#   7]
          +0.007*[#   8]+0.007*[#  20]+0.007*[#  21]
    |psi|^2 = 1.000
==== e(   8) =   -24.10438 eV ==== 
     psi = 0.242*[#   4]+0.242*[#   5]+0.242*[#  17]+0.242*[#  18]+0.008*[#   7]
          +0.008*[#   8]+0.008*[#  20]+0.008*[#  21]
    |psi|^2 = 1.000
==== e(   9) =    -3.69449 eV ==== 
     psi = 0.170*[#   2]+0.170*[#  15]+0.137*[#  27]+0.137*[#  31]+0.137*[#  35]
          +0.137*[#  39]+0.020*[#   7]+0.020*[#   8]+0.020*[#  20]+0.020*[#  21]
          +0.010*[#   1]+0.010*[#  14]+0.002*[#   9]+0.002*[#  22]
    |psi|^2 = 0.999
==== e(  10) =    -3.38393 eV ==== 
     psi = 0.159*[#   2]+0.159*[#  15]+0.140*[#  27]+0.140*[#  31]+0.140*[#  35]
          +0.140*[#  39]+0.018*[#   7]+0.018*[#   8]+0.018*[#  20]+0.018*[#  21]
          +0.011*[#   1]+0.011*[#  14]+0.005*[#  28]+0.005*[#  32]+0.005*[#  36]
          +0.005*[#  40]
    |psi|^2 = 0.999
==== e(  11) =    -2.61288 eV ==== 
     psi = 0.212*[#   6]+0.212*[#  19]+0.136*[#  27]+0.136*[#  31]+0.136*[#  35]
          +0.136*[#  39]+0.009*[#   3]+0.009*[#  16]+0.002*[#  10]+0.002*[#  11]
          +0.002*[#  23]+0.002*[#  24]
    |psi|^2 = 0.998
==== e(  12) =    -2.13116 eV ==== 
     psi = 0.168*[#   6]+0.168*[#  19]+0.157*[#  27]+0.157*[#  31]+0.157*[#  35]
          +0.157*[#  39]+0.010*[#   3]+0.010*[#  16]+0.003*[#  10]+0.003*[#  11]
          +0.003*[#  23]+0.003*[#  24]
    |psi|^2 = 0.999
==== e(  13) =     4.42696 eV ==== 
     psi = 0.160*[#  28]+0.160*[#  32]+0.160*[#  36]+0.160*[#  40]+0.125*[#   9]
          +0.125*[#  22]+0.015*[#   2]+0.015*[#  15]+0.011*[#   1]+0.011*[#  14]
          +0.009*[#  27]+0.009*[#  31]+0.009*[#  35]+0.009*[#  39]+0.001*[#  12]
          +0.001*[#  13]+0.001*[#  25]+0.001*[#  26]
    |psi|^2 = 0.992
==== e(  14) =     5.54393 eV ==== 
     psi = 0.196*[#   9]+0.196*[#  22]+0.108*[#  28]+0.108*[#  32]+0.108*[#  36]
          +0.108*[#  40]+0.022*[#  27]+0.022*[#  31]+0.022*[#  35]+0.022*[#  39]
          +0.020*[#   2]+0.020*[#  15]+0.009*[#   1]+0.009*[#  14]+0.002*[#  12]
          +0.002*[#  13]+0.002*[#  25]+0.002*[#  26]
    |psi|^2 = 0.987
==== e(  15) =     7.38765 eV ==== 
     psi = 0.199*[#  28]+0.199*[#  32]+0.199*[#  36]+0.199*[#  40]+0.026*[#  10]
          +0.026*[#  11]+0.026*[#  23]+0.026*[#  24]+0.022*[#   6]+0.022*[#  19]
          +0.004*[#  29]+0.004*[#  30]+0.004*[#  33]+0.004*[#  34]+0.004*[#  37]
          +0.004*[#  38]+0.004*[#  41]+0.004*[#  42]+0.004*[#  27]+0.004*[#  31]
          +0.004*[#  35]+0.004*[#  39]+0.003*[#   3]+0.003*[#  16]
    |psi|^2 = 0.997
==== e(  16) =     7.86144 eV ==== 
     psi = 0.154*[#  12]+0.154*[#  13]+0.154*[#  25]+0.154*[#  26]+0.042*[#  29]
          +0.042*[#  30]+0.042*[#  33]+0.042*[#  34]+0.042*[#  37]+0.042*[#  38]
          +0.042*[#  41]+0.042*[#  42]+0.009*[#   2]+0.009*[#  15]+0.003*[#  27]
          +0.003*[#  31]+0.003*[#  35]+0.003*[#  39]
    |psi|^2 = 0.992
==== e(  17) =     7.88760 eV ==== 
     psi = 0.157*[#  12]+0.157*[#  13]+0.157*[#  25]+0.157*[#  26]+0.041*[#  29]
          +0.041*[#  30]+0.041*[#  33]+0.041*[#  34]+0.041*[#  37]+0.041*[#  38]
          +0.041*[#  41]+0.041*[#  42]+0.007*[#   2]+0.007*[#  15]+0.003*[#  27]
          +0.003*[#  31]+0.003*[#  35]+0.003*[#  39]+0.001*[#   7]+0.001*[#   8]
          +0.001*[#  20]+0.001*[#  21]
    |psi|^2 = 0.990
==== e(  18) =     8.21839 eV ==== 
     psi = 0.160*[#  12]+0.160*[#  13]+0.160*[#  25]+0.160*[#  26]+0.043*[#  29]
          +0.043*[#  30]+0.043*[#  33]+0.043*[#  34]+0.043*[#  37]+0.043*[#  38]
          +0.043*[#  41]+0.043*[#  42]+0.002*[#   7]+0.002*[#   8]+0.002*[#  20]
          +0.002*[#  21]
    |psi|^2 = 0.992
==== e(  19) =     8.24073 eV ==== 
     psi = 0.163*[#  12]+0.163*[#  13]+0.163*[#  25]+0.163*[#  26]+0.042*[#  29]
          +0.042*[#  30]+0.042*[#  33]+0.042*[#  34]+0.042*[#  37]+0.042*[#  38]
          +0.042*[#  41]+0.042*[#  42]+0.001*[#   7]+0.001*[#   8]+0.001*[#  20]
          +0.001*[#  21]
    |psi|^2 = 0.991
==== e(  20) =     8.74278 eV ==== 
     psi = 0.118*[#  10]+0.118*[#  11]+0.118*[#  23]+0.118*[#  24]+0.047*[#  29]
          +0.047*[#  30]+0.047*[#  33]+0.047*[#  34]+0.047*[#  37]+0.047*[#  38]
          +0.047*[#  41]+0.047*[#  42]+0.033*[#  28]+0.033*[#  32]+0.033*[#  36]
          +0.033*[#  40]+0.004*[#   6]+0.004*[#  19]
    |psi|^2 = 0.990
==== e(  21) =     8.99242 eV ==== 
     psi = 0.137*[#  10]+0.137*[#  11]+0.137*[#  23]+0.137*[#  24]+0.055*[#  29]
          +0.055*[#  30]+0.055*[#  33]+0.055*[#  34]+0.055*[#  37]+0.055*[#  38]
          +0.055*[#  41]+0.055*[#  42]
    |psi|^2 = 0.989
==== e(  22) =     9.05204 eV ==== 
     psi = 0.141*[#  10]+0.141*[#  11]+0.141*[#  23]+0.141*[#  24]+0.053*[#  29]
          +0.053*[#  30]+0.053*[#  33]+0.053*[#  34]+0.053*[#  37]+0.053*[#  38]
          +0.053*[#  41]+0.053*[#  42]
    |psi|^2 = 0.988
==== e(  23) =     9.24789 eV ==== 
     psi = 0.102*[#  10]+0.102*[#  11]+0.102*[#  23]+0.102*[#  24]+0.055*[#  29]
          +0.055*[#  30]+0.055*[#  33]+0.055*[#  34]+0.055*[#  37]+0.055*[#  38]
          +0.055*[#  41]+0.055*[#  42]+0.033*[#  28]+0.033*[#  32]+0.033*[#  36]
          +0.033*[#  40]+0.001*[#   3]+0.001*[#  16]
    |psi|^2 = 0.984
==== e(  24) =     9.95852 eV ==== 
     psi = 0.332*[#   9]+0.332*[#  22]+0.069*[#  28]+0.069*[#  32]+0.069*[#  36]
          +0.069*[#  40]+0.005*[#   7]+0.005*[#   8]+0.005*[#  20]+0.005*[#  21]
          +0.002*[#  12]+0.002*[#  13]+0.002*[#  25]+0.002*[#  26]
    |psi|^2 = 0.976
==== e(  25) =    10.15016 eV ==== 
     psi = 0.200*[#  28]+0.200*[#  32]+0.200*[#  36]+0.200*[#  40]+0.017*[#  29]
          +0.017*[#  30]+0.017*[#  33]+0.017*[#  34]+0.017*[#  37]+0.017*[#  38]
          +0.017*[#  41]+0.017*[#  42]+0.004*[#   6]+0.004*[#  10]+0.004*[#  11]
          +0.004*[#  19]+0.004*[#  23]+0.004*[#  24]+0.004*[#   3]+0.004*[#  16]
          +0.004*[#  27]+0.004*[#  31]+0.004*[#  35]+0.004*[#  39]
    |psi|^2 = 0.990
==== e(  26) =    10.94682 eV ==== 
     psi = 0.266*[#   9]+0.266*[#  22]+0.077*[#  28]+0.077*[#  32]+0.077*[#  36]
          +0.077*[#  40]+0.014*[#  27]+0.014*[#  31]+0.014*[#  35]+0.014*[#  39]
          +0.011*[#  12]+0.011*[#  13]+0.011*[#  25]+0.011*[#  26]+0.005*[#   2]
          +0.005*[#  15]+0.005*[#  29]+0.005*[#  30]+0.005*[#  33]+0.005*[#  34]
          +0.005*[#  37]+0.005*[#  38]+0.005*[#  41]+0.005*[#  42]
    |psi|^2 = 0.993
==== e(  27) =    13.25757 eV ==== 
     psi = 0.112*[#  10]+0.112*[#  11]+0.112*[#  23]+0.112*[#  24]+0.059*[#  29]
          +0.059*[#  30]+0.059*[#  33]+0.059*[#  34]+0.059*[#  37]+0.059*[#  38]
          +0.059*[#  41]+0.059*[#  42]+0.009*[#  27]+0.009*[#  31]+0.009*[#  35]
          +0.009*[#  39]+0.004*[#   6]+0.004*[#  19]+0.001*[#  28]+0.001*[#  32]
          +0.001*[#  36]+0.001*[#  40]
    |psi|^2 = 0.968
==== e(  28) =    13.29426 eV ==== 
     psi = 0.083*[#  12]+0.083*[#  13]+0.083*[#  25]+0.083*[#  26]+0.073*[#  29]
          +0.073*[#  30]+0.073*[#  33]+0.073*[#  34]+0.073*[#  37]+0.073*[#  38]
          +0.073*[#  41]+0.073*[#  42]+0.008*[#   9]+0.008*[#  22]+0.005*[#  27]
          +0.005*[#  31]+0.005*[#  35]+0.005*[#  39]+0.004*[#  28]+0.004*[#  32]
          +0.004*[#  36]+0.004*[#  40]+0.004*[#   2]+0.004*[#  15]
    |psi|^2 = 0.985
==== e(  29) =    13.29847 eV ==== 
     psi = 0.117*[#  10]+0.117*[#  11]+0.117*[#  23]+0.117*[#  24]+0.055*[#  29]
          +0.055*[#  30]+0.055*[#  33]+0.055*[#  34]+0.055*[#  37]+0.055*[#  38]
          +0.055*[#  41]+0.055*[#  42]+0.009*[#  28]+0.009*[#  32]+0.009*[#  36]
          +0.009*[#  40]+0.006*[#  27]+0.006*[#  31]+0.006*[#  35]+0.006*[#  39]
          +0.002*[#   6]+0.002*[#  19]
    |psi|^2 = 0.970
==== e(  30) =    13.34206 eV ==== 
     psi = 0.085*[#  12]+0.085*[#  13]+0.085*[#  25]+0.085*[#  26]+0.079*[#  29]
          +0.079*[#  30]+0.079*[#  33]+0.079*[#  34]+0.079*[#  37]+0.079*[#  38]
          +0.079*[#  41]+0.079*[#  42]+0.003*[#   7]+0.003*[#   8]+0.003*[#  20]
          +0.003*[#  21]
    |psi|^2 = 0.986

 k =   0.1154700538  0.0000000000  0.0000000000
==== e(   1) =   -50.20934 eV ==== 
     psi = 0.463*[#   1]+0.463*[#  14]+0.012*[#   7]+0.012*[#   8]+0.012*[#  20]
          +0.012*[#  21]+0.004*[#  28]+0.004*[#  32]+0.004*[#  36]+0.004*[#  40]
          +0.002*[#   2]+0.002*[#  15]+0.001*[#   9]+0.001*[#  22]
    |psi|^2 = 1.000
==== e(   2) =   -50.20934 eV ==== 
     psi = 0.463*[#   1]+0.463*[#  14]+0.012*[#   7]+0.012*[#   8]+0.012*[#  20]
          +0.012*[#  21]+0.004*[#  28]+0.004*[#  32]+0.004*[#  36]+0.004*[#  40]
          +0.002*[#   2]+0.002*[#  15]+0.001*[#   9]+0.001*[#  22]
    |psi|^2 = 1.000
==== e(   3) =   -24.41034 eV ==== 
     psi = 0.487*[#   3]+0.487*[#  16]+0.004*[#   6]+0.004*[#  19]+0.002*[#  27]
          +0.002*[#  28]+0.002*[#  31]+0.002*[#  32]+0.002*[#  35]+0.002*[#  36]
          +0.002*[#  39]+0.002*[#  40]
    |psi|^2 = 1.000
==== e(   4) =   -24.41033 eV ==== 
     psi = 0.486*[#   3]+0.486*[#  16]+0.004*[#   6]+0.004*[#  19]+0.002*[#  27]
          +0.002*[#  31]+0.002*[#  35]+0.002*[#  39]+0.002*[#  28]+0.002*[#  32]
          +0.002*[#  36]+0.002*[#  40]
    |psi|^2 = 1.000
==== e(   5) =   -24.13813 eV ==== 
     psi = 0.244*[#   4]+0.244*[#   5]+0.244*[#  17]+0.244*[#  18]+0.004*[#   2]
          +0.004*[#  15]+0.003*[#   7]+0.003*[#   8]+0.003*[#  20]+0.003*[#  21]
          
    |psi|^2 = 1.000
==== e(   6) =   -24.13810 eV ==== 
     psi = 0.244*[#   4]+0.244*[#   5]+0.244*[#  17]+0.244*[#  18]+0.004*[#   2]
          +0.004*[#  15]+0.003*[#   7]+0.003*[#   8]+0.003*[#  20]+0.003*[#  21]
          
    |psi|^2 = 1.000
==== e(   7) =   -24.10711 eV ==== 
     psi = 0.242*[#   4]+0.242*[#   5]+0.242*[#  17]+0.242*[#  18]+0.007*[#   7]
          +0.007*[#   8]+0.007*[#  20]+0.007*[#  21]
    |psi|^2 = 1.000
==== e(   8) =   -24.10709 eV ==== 
     psi = 0.242*[#   4]+0.242*[#   5]+0.242*[#  17]+0.242*[#  18]+0.007*[#   7]
          +0.007*[#   8]+0.007*[#  20]+0.007*[#  21]
    |psi|^2 = 1.000
==== e(   9) =    -3.64813 eV ==== 
     psi = 0.159*[#   2]+0.159*[#  15]+0.135*[#  27]+0.135*[#  31]+0.135*[#  35]
          +0.135*[#  39]+0.026*[#   7]+0.026*[#   8]+0.026*[#  20]+0.026*[#  21]
          +0.010*[#   1]+0.010*[#  14]+0.002*[#   9]+0.002*[#  22]
    |psi|^2 = 0.999
==== e(  10) =    -3.33847 eV ==== 
     psi = 0.148*[#   2]+0.148*[#  15]+0.139*[#  27]+0.139*[#  31]+0.139*[#  35]
          +0.139*[#  39]+0.023*[#   7]+0.023*[#   8]+0.023*[#  20]+0.023*[#  21]
          +0.012*[#   1]+0.012*[#  14]+0.005*[#  28]+0.005*[#  32]+0.005*[#  36]
          +0.005*[#  40]
    |psi|^2 = 0.999
==== e(  11) =    -2.58925 eV ==== 
     psi = 0.207*[#   6]+0.207*[#  19]+0.138*[#  27]+0.138*[#  31]+0.138*[#  35]
          +0.138*[#  39]+0.009*[#   3]+0.009*[#  16]+0.003*[#  10]+0.003*[#  11]
          +0.003*[#  23]+0.003*[#  24]
    |psi|^2 = 0.998
==== e(  12) =    -2.11366 eV ==== 
     psi = 0.163*[#   6]+0.163*[#  19]+0.159*[#  27]+0.159*[#  31]+0.159*[#  35]
          +0.159*[#  39]+0.010*[#   3]+0.010*[#  16]+0.004*[#  10]+0.004*[#  11]
          +0.004*[#  23]+0.004*[#  24]
    |psi|^2 = 0.999
==== e(  13) =     4.47947 eV ==== 
     psi = 0.160*[#  28]+0.160*[#  32]+0.160*[#  36]+0.160*[#  40]+0.123*[#   9]
          +0.123*[#  22]+0.015*[#   2]+0.015*[#  15]+0.010*[#   1]+0.010*[#  14]
          +0.009*[#  27]+0.009*[#  31]+0.009*[#  35]+0.009*[#  39]+0.002*[#  12]
          +0.002*[#  13]+0.002*[#  25]+0.002*[#  26]
    |psi|^2 = 0.992
==== e(  14) =     5.59450 eV ==== 
     psi = 0.193*[#   9]+0.193*[#  22]+0.109*[#  28]+0.109*[#  32]+0.109*[#  36]
          +0.109*[#  40]+0.021*[#  27]+0.021*[#  31]+0.021*[#  35]+0.021*[#  39]
          +0.019*[#   2]+0.019*[#  15]+0.009*[#   1]+0.009*[#  14]+0.003*[#  12]
          +0.003*[#  13]+0.003*[#  25]+0.003*[#  26]
    |psi|^2 = 0.987
==== e(  15) =     7.32045 eV ==== 
     psi = 0.187*[#  28]+0.187*[#  32]+0.187*[#  36]+0.187*[#  40]+0.034*[#  10]
          +0.034*[#  11]+0.034*[#  23]+0.034*[#  24]+0.023*[#   6]+0.023*[#  19]
          +0.006*[#  29]+0.006*[#  30]+0.006*[#  33]+0.006*[#  34]+0.006*[#  37]
          +0.006*[#  38]+0.006*[#  41]+0.006*[#  42]+0.003*[#  27]+0.003*[#  31]
          +0.003*[#  35]+0.003*[#  39]+0.002*[#   3]+0.002*[#  16]
    |psi|^2 = 0.997
==== e(  16) =     7.76038 eV ==== 
     psi = 0.148*[#  12]+0.148*[#  13]+0.148*[#  25]+0.148*[#  26]+0.043*[#  29]
          +0.043*[#  30]+0.043*[#  33]+0.043*[#  34]+0.043*[#  37]+0.043*[#  38]
          +0.043*[#  41]+0.043*[#  42]+0.012*[#   2]+0.012*[#  15]+0.005*[#  27]
          +0.005*[#  31]+0.005*[#  35]+0.005*[#  39]
    |psi|^2 = 0.991
==== e(  17) =     7.79183 eV ==== 
     psi = 0.152*[#  12]+0.152*[#  13]+0.152*[#  25]+0.152*[#  26]+0.041*[#  29]
          +0.041*[#  30]+0.041*[#  33]+0.041*[#  34]+0.041*[#  37]+0.041*[#  38]
          +0.041*[#  41]+0.041*[#  42]+0.010*[#   2]+0.010*[#  15]+0.004*[#  27]
          +0.004*[#  31]+0.004*[#  35]+0.004*[#  39]+0.002*[#   7]+0.002*[#   8]
          +0.002*[#  20]+0.002*[#  21]
    |psi|^2 = 0.990
==== e(  18) =     8.26364 eV ==== 
     psi = 0.158*[#  12]+0.158*[#  13]+0.158*[#  25]+0.158*[#  26]+0.044*[#  29]
          +0.044*[#  30]+0.044*[#  33]+0.044*[#  34]+0.044*[#  37]+0.044*[#  38]
          +0.044*[#  41]+0.044*[#  42]+0.002*[#   7]+0.002*[#   8]+0.002*[#  20]
          +0.002*[#  21]
    |psi|^2 = 0.992
==== e(  19) =     8.28882 eV ==== 
     psi = 0.161*[#  12]+0.161*[#  13]+0.161*[#  25]+0.161*[#  26]+0.043*[#  29]
          +0.043*[#  30]+0.043*[#  33]+0.043*[#  34]+0.043*[#  37]+0.043*[#  38]
          +0.043*[#  41]+0.043*[#  42]+0.002*[#   7]+0.002*[#   8]+0.002*[#  20]
          +0.002*[#  21]
    |psi|^2 = 0.991
==== e(  20) =     8.60378 eV ==== 
     psi = 0.115*[#  10]+0.115*[#  11]+0.115*[#  23]+0.115*[#  24]+0.047*[#  29]
          +0.047*[#  30]+0.047*[#  33]+0.047*[#  34]+0.047*[#  37]+0.047*[#  38]
          +0.047*[#  41]+0.047*[#  42]+0.035*[#  28]+0.035*[#  32]+0.035*[#  36]
          +0.035*[#  40]+0.005*[#   6]+0.005*[#  19]
    |psi|^2 = 0.990
==== e(  21) =     8.92282 eV ==== 
     psi = 0.136*[#  10]+0.136*[#  11]+0.136*[#  23]+0.136*[#  24]+0.056*[#  29]
          +0.056*[#  30]+0.056*[#  33]+0.056*[#  34]+0.056*[#  37]+0.056*[#  38]
          +0.056*[#  41]+0.056*[#  42]
    |psi|^2 = 0.989
==== e(  22) =     8.98453 eV ==== 
     psi = 0.140*[#  10]+0.140*[#  11]+0.140*[#  23]+0.140*[#  24]+0.053*[#  29]
          +0.053*[#  30]+0.053*[#  33]+0.053*[#  34]+0.053*[#  37]+0.053*[#  38]
          +0.053*[#  41]+0.053*[#  42]
    |psi|^2 = 0.988
==== e(  23) =     9.24675 eV ==== 
     psi = 0.088*[#  10]+0.088*[#  11]+0.088*[#  23]+0.088*[#  24]+0.056*[#  29]
          +0.056*[#  30]+0.056*[#  33]+0.056*[#  34]+0.056*[#  37]+0.056*[#  38]
          +0.056*[#  41]+0.056*[#  42]+0.044*[#  28]+0.044*[#  32]+0.044*[#  36]
          +0.044*[#  40]+0.002*[#   3]+0.002*[#  16]
    |psi|^2 = 0.983
==== e(  24) =     9.96358 eV ==== 
     psi = 0.332*[#   9]+0.332*[#  22]+0.067*[#  28]+0.067*[#  32]+0.067*[#  36]
          +0.067*[#  40]+0.006*[#   7]+0.006*[#   8]+0.006*[#  20]+0.006*[#  21]
          +0.003*[#  12]+0.003*[#  13]+0.003*[#  25]+0.003*[#  26]+0.001*[#  29]
          +0.001*[#  30]+0.001*[#  33]+0.001*[#  34]+0.001*[#  37]+0.001*[#  38]
          +0.001*[#  41]+0.001*[#  42]
    |psi|^2 = 0.977
==== e(  25) =    10.16024 eV ==== 
     psi = 0.193*[#  28]+0.193*[#  32]+0.193*[#  36]+0.193*[#  40]+0.021*[#  29]
          +0.021*[#  30]+0.021*[#  33]+0.021*[#  34]+0.021*[#  37]+0.021*[#  38]
          +0.021*[#  41]+0.021*[#  42]+0.006*[#   6]+0.006*[#  19]+0.005*[#  27]
          +0.005*[#  31]+0.005*[#  35]+0.005*[#  39]+0.004*[#   3]+0.004*[#  16]
          +0.003*[#  10]+0.003*[#  11]+0.003*[#  23]+0.003*[#  24]
    |psi|^2 = 0.991
==== e(  26) =    10.86155 eV ==== 
     psi = 0.258*[#   9]+0.258*[#  22]+0.072*[#  28]+0.072*[#  32]+0.072*[#  36]
          +0.072*[#  40]+0.016*[#  12]+0.016*[#  13]+0.016*[#  25]+0.016*[#  26]
          +0.014*[#  27]+0.014*[#  31]+0.014*[#  35]+0.014*[#  39]+0.007*[#  29]
          +0.007*[#  30]+0.007*[#  33]+0.007*[#  34]+0.007*[#  37]+0.007*[#  38]
          +0.007*[#  41]+0.007*[#  42]+0.005*[#   2]+0.005*[#  15]
    |psi|^2 = 0.993
==== e(  27) =    13.17729 eV ==== 
     psi = 0.086*[#  12]+0.086*[#  13]+0.086*[#  25]+0.086*[#  26]+0.071*[#  29]
          +0.071*[#  30]+0.071*[#  33]+0.071*[#  34]+0.071*[#  37]+0.071*[#  38]
          +0.071*[#  41]+0.071*[#  42]+0.007*[#   9]+0.007*[#  22]+0.007*[#  27]
          +0.007*[#  31]+0.007*[#  35]+0.007*[#  39]+0.005*[#   2]+0.005*[#  15]
          +0.004*[#  28]+0.004*[#  32]+0.004*[#  36]+0.004*[#  40]
    |psi|^2 = 0.983
==== e(  28) =    13.21504 eV ==== 
     psi = 0.117*[#  10]+0.117*[#  11]+0.117*[#  23]+0.117*[#  24]+0.054*[#  29]
          +0.054*[#  30]+0.054*[#  33]+0.054*[#  34]+0.054*[#  37]+0.054*[#  38]
          +0.054*[#  41]+0.054*[#  42]+0.013*[#  27]+0.013*[#  31]+0.013*[#  35]
          +0.013*[#  39]+0.005*[#   6]+0.005*[#  19]+0.002*[#  28]+0.002*[#  32]
          +0.002*[#  36]+0.002*[#  40]
    |psi|^2 = 0.968
==== e(  29) =    13.29322 eV ==== 
     psi = 0.122*[#  10]+0.122*[#  11]+0.122*[#  23]+0.122*[#  24]+0.049*[#  29]
          +0.049*[#  30]+0.049*[#  33]+0.049*[#  34]+0.049*[#  37]+0.049*[#  38]
          +0.049*[#  41]+0.049*[#  42]+0.014*[#  28]+0.014*[#  32]+0.014*[#  36]
          +0.014*[#  40]+0.008*[#  27]+0.008*[#  31]+0.008*[#  35]+0.008*[#  39]
          +0.002*[#   6]+0.002*[#  19]
    |psi|^2 = 0.968
==== e(  30) =    13.29377 eV ==== 
     psi = 0.087*[#  12]+0.087*[#  13]+0.087*[#  25]+0.087*[#  26]+0.078*[#  29]
          +0.078*[#  30]+0.078*[#  33]+0.078*[#  34]+0.078*[#  37]+0.078*[#  38]
          +0.078*[#  41]+0.078*[#  42]+0.003*[#   7]+0.003*[#   8]+0.003*[#  20]
          +0.003*[#  21]
    |psi|^2 = 0.985

 k =   0.1347150628  0.0000000000  0.0000000000
==== e(   1) =   -50.20794 eV ==== 
     psi = 0.459*[#   1]+0.459*[#  14]+0.015*[#   7]+0.015*[#   8]+0.015*[#  20]
          +0.015*[#  21]+0.004*[#  28]+0.004*[#  32]+0.004*[#  36]+0.004*[#  40]
          +0.001*[#   2]+0.001*[#   9]+0.001*[#  15]+0.001*[#  22]
    |psi|^2 = 1.000
==== e(   2) =   -50.20794 eV ==== 
     psi = 0.459*[#   1]+0.459*[#  14]+0.015*[#   7]+0.015*[#   8]+0.015*[#  20]
          +0.015*[#  21]+0.004*[#  28]+0.004*[#  32]+0.004*[#  36]+0.004*[#  40]
          +0.001*[#   2]+0.001*[#  15]
    |psi|^2 = 1.000
==== e(   3) =   -24.40763 eV ==== 
     psi = 0.487*[#   3]+0.487*[#  16]+0.004*[#   6]+0.004*[#  19]+0.002*[#  27]
          +0.002*[#  31]+0.002*[#  35]+0.002*[#  39]+0.002*[#  28]+0.002*[#  32]
          +0.002*[#  36]+0.002*[#  40]
    |psi|^2 = 1.000
==== e(   4) =   -24.40762 eV ==== 
     psi = 0.486*[#   3]+0.486*[#  16]+0.004*[#   6]+0.004*[#  19]+0.002*[#  27]
          +0.002*[#  31]+0.002*[#  35]+0.002*[#  39]+0.002*[#  28]+0.002*[#  32]
          +0.002*[#  36]+0.002*[#  40]
    |psi|^2 = 1.000
==== e(   5) =   -24.15191 eV ==== 
     psi = 0.244*[#   4]+0.244*[#   5]+0.244*[#  17]+0.244*[#  18]+0.005*[#   2]
          +0.005*[#  15]+0.002*[#   7]+0.002*[#   8]+0.002*[#  20]+0.002*[#  21]
          
    |psi|^2 = 1.000
==== e(   6) =   -24.15187 eV ==== 
     psi = 0.244*[#   4]+0.244*[#   5]+0.244*[#  17]+0.244*[#  18]+0.004*[#   2]
          +0.004*[#  15]+0.002*[#   7]+0.002*[#   8]+0.002*[#  20]+0.002*[#  21]
          
    |psi|^2 = 1.000
==== e(   7) =   -24.11025 eV ==== 
     psi = 0.242*[#   4]+0.242*[#   5]+0.242*[#  17]+0.242*[#  18]+0.007*[#   7]
          +0.007*[#   8]+0.007*[#  20]+0.007*[#  21]
    |psi|^2 = 1.000
==== e(   8) =   -24.11023 eV ==== 
     psi = 0.242*[#   4]+0.242*[#   5]+0.242*[#  17]+0.242*[#  18]+0.007*[#   7]
          +0.007*[#   8]+0.007*[#  20]+0.007*[#  21]
    |psi|^2 = 1.000
==== e(   9) =    -3.59396 eV ==== 
     psi = 0.146*[#   2]+0.146*[#  15]+0.134*[#  27]+0.134*[#  31]+0.134*[#  35]
          +0.134*[#  39]+0.032*[#   7]+0.032*[#   8]+0.032*[#  20]+0.032*[#  21]
          +0.010*[#   1]+0.010*[#  14]+0.002*[#   9]+0.002*[#  22]
    |psi|^2 = 0.999
==== e(  10) =    -3.28545 eV ==== 
     psi = 0.138*[#  27]+0.138*[#  31]+0.138*[#  35]+0.138*[#  39]+0.137*[#   2]
          +0.137*[#  15]+0.029*[#   7]+0.029*[#   8]+0.029*[#  20]+0.029*[#  21]
          +0.012*[#   1]+0.012*[#  14]+0.005*[#  28]+0.005*[#  32]+0.005*[#  36]
          +0.005*[#  40]
    |psi|^2 = 0.999
==== e(  11) =    -2.56163 eV ==== 
     psi = 0.202*[#   6]+0.202*[#  19]+0.139*[#  27]+0.139*[#  31]+0.139*[#  35]
          +0.139*[#  39]+0.008*[#   3]+0.008*[#  16]+0.004*[#  10]+0.004*[#  11]
          +0.004*[#  23]+0.004*[#  24]
    |psi|^2 = 0.999
==== e(  12) =    -2.09326 eV ==== 
     psi = 0.161*[#  27]+0.161*[#  31]+0.161*[#  35]+0.161*[#  39]+0.156*[#   6]
          +0.156*[#  19]+0.009*[#   3]+0.009*[#  16]+0.005*[#  10]+0.005*[#  11]
          +0.005*[#  23]+0.005*[#  24]
    |psi|^2 = 0.999
==== e(  13) =     4.53961 eV ==== 
     psi = 0.161*[#  28]+0.161*[#  32]+0.161*[#  36]+0.161*[#  40]+0.120*[#   9]
          +0.120*[#  22]+0.014*[#   2]+0.014*[#  15]+0.010*[#   1]+0.010*[#  14]
          +0.009*[#  27]+0.009*[#  31]+0.009*[#  35]+0.009*[#  39]+0.003*[#  12]
          +0.003*[#  13]+0.003*[#  25]+0.003*[#  26]
    |psi|^2 = 0.992
==== e(  14) =     5.65142 eV ==== 
     psi = 0.189*[#   9]+0.189*[#  22]+0.109*[#  28]+0.109*[#  32]+0.109*[#  36]
          +0.109*[#  40]+0.021*[#  27]+0.021*[#  31]+0.021*[#  35]+0.021*[#  39]
          +0.018*[#   2]+0.018*[#  15]+0.008*[#   1]+0.008*[#  14]+0.005*[#  12]
          +0.005*[#  13]+0.005*[#  25]+0.005*[#  26]+0.001*[#  29]+0.001*[#  30]
          +0.001*[#  33]+0.001*[#  34]+0.001*[#  37]+0.001*[#  38]+0.001*[#  41]
          +0.001*[#  42]+0.001*[#   7]+0.001*[#   8]+0.001*[#  20]+0.001*[#  21]
          
    |psi|^2 = 0.987
==== e(  15) =     7.24584 eV ==== 
     psi = 0.175*[#  28]+0.175*[#  32]+0.175*[#  36]+0.175*[#  40]+0.041*[#  10]
          +0.041*[#  11]+0.041*[#  23]+0.041*[#  24]+0.025*[#   6]+0.025*[#  19]
          +0.008*[#  29]+0.008*[#  30]+0.008*[#  33]+0.008*[#  34]+0.008*[#  37]
          +0.008*[#  38]+0.008*[#  41]+0.008*[#  42]+0.003*[#  27]+0.003*[#  31]
          +0.003*[#  35]+0.003*[#  39]+0.002*[#   3]+0.002*[#  16]
    |psi|^2 = 0.997
==== e(  16) =     7.64750 eV ==== 
     psi = 0.142*[#  12]+0.142*[#  13]+0.142*[#  25]+0.142*[#  26]+0.044*[#  29]
          +0.044*[#  30]+0.044*[#  33]+0.044*[#  34]+0.044*[#  37]+0.044*[#  38]
          +0.044*[#  41]+0.044*[#  42]+0.015*[#   2]+0.015*[#  15]+0.006*[#  27]
          +0.006*[#  31]+0.006*[#  35]+0.006*[#  39]+0.001*[#  28]+0.001*[#  32]
          +0.001*[#  36]+0.001*[#  40]+0.001*[#   7]+0.001*[#   8]+0.001*[#  20]
          +0.001*[#  21]+0.001*[#   1]+0.001*[#  14]
    |psi|^2 = 0.991
==== e(  17) =     7.68594 eV ==== 
     psi = 0.146*[#  12]+0.146*[#  13]+0.146*[#  25]+0.146*[#  26]+0.042*[#  29]
          +0.042*[#  30]+0.042*[#  33]+0.042*[#  34]+0.042*[#  37]+0.042*[#  38]
          +0.042*[#  41]+0.042*[#  42]+0.014*[#   2]+0.014*[#  15]+0.006*[#  27]
          +0.006*[#  31]+0.006*[#  35]+0.006*[#  39]+0.002*[#   7]+0.002*[#   8]
          +0.002*[#  20]+0.002*[#  21]+0.002*[#   9]+0.002*[#  22]+0.002*[#  28]
          +0.002*[#  32]+0.002*[#  36]+0.002*[#  40]+0.001*[#   1]+0.001*[#  14]
          
    |psi|^2 = 0.990
==== e(  18) =     8.31603 eV ==== 
     psi = 0.154*[#  12]+0.154*[#  13]+0.154*[#  25]+0.154*[#  26]+0.045*[#  29]
          +0.045*[#  30]+0.045*[#  33]+0.045*[#  34]+0.045*[#  37]+0.045*[#  38]
          +0.045*[#  41]+0.045*[#  42]+0.003*[#   7]+0.003*[#   8]+0.003*[#  20]
          +0.003*[#  21]
    |psi|^2 = 0.992
==== e(  19) =     8.34457 eV ==== 
     psi = 0.158*[#  12]+0.158*[#  13]+0.158*[#  25]+0.158*[#  26]+0.044*[#  29]
          +0.044*[#  30]+0.044*[#  33]+0.044*[#  34]+0.044*[#  37]+0.044*[#  38]
          +0.044*[#  41]+0.044*[#  42]+0.002*[#   7]+0.002*[#   8]+0.002*[#  20]
          +0.002*[#  21]
    |psi|^2 = 0.991
==== e(  20) =     8.45770 eV ==== 
     psi = 0.111*[#  10]+0.111*[#  11]+0.111*[#  23]+0.111*[#  24]+0.048*[#  29]
          +0.048*[#  30]+0.048*[#  33]+0.048*[#  34]+0.048*[#  37]+0.048*[#  38]
          +0.048*[#  41]+0.048*[#  42]+0.036*[#  28]+0.036*[#  32]+0.036*[#  36]
          +0.036*[#  40]+0.007*[#   6]+0.007*[#  19]
    |psi|^2 = 0.991
==== e(  21) =     8.84546 eV ==== 
     psi = 0.135*[#  10]+0.135*[#  11]+0.135*[#  23]+0.135*[#  24]+0.056*[#  29]
          +0.056*[#  30]+0.056*[#  33]+0.056*[#  34]+0.056*[#  37]+0.056*[#  38]
          +0.056*[#  41]+0.056*[#  42]
    |psi|^2 = 0.990
==== e(  22) =     8.90937 eV ==== 
     psi = 0.140*[#  10]+0.140*[#  11]+0.140*[#  23]+0.140*[#  24]+0.054*[#  29]
          +0.054*[#  30]+0.054*[#  33]+0.054*[#  34]+0.054*[#  37]+0.054*[#  38]
          +0.054*[#  41]+0.054*[#  42]
    |psi|^2 = 0.989
==== e(  23) =     9.23774 eV ==== 
     psi = 0.073*[#  10]+0.073*[#  11]+0.073*[#  23]+0.073*[#  24]+0.057*[#  29]
          +0.057*[#  30]+0.057*[#  33]+0.057*[#  34]+0.057*[#  37]+0.057*[#  38]
          +0.057*[#  41]+0.057*[#  42]+0.055*[#  28]+0.055*[#  32]+0.055*[#  36]
          +0.055*[#  40]+0.002*[#   3]+0.002*[#  16]
    |psi|^2 = 0.982
==== e(  24) =     9.96639 eV ==== 
     psi = 0.331*[#   9]+0.331*[#  22]+0.064*[#  28]+0.064*[#  32]+0.064*[#  36]
          +0.064*[#  40]+0.007*[#   7]+0.007*[#   8]+0.007*[#  20]+0.007*[#  21]
          +0.005*[#  12]+0.005*[#  13]+0.005*[#  25]+0.005*[#  26]+0.002*[#  29]
          +0.002*[#  30]+0.002*[#  33]+0.002*[#  34]+0.002*[#  37]+0.002*[#  38]
          +0.002*[#  41]+0.002*[#  42]
    |psi|^2 = 0.979
==== e(  25) =    10.15035 eV ==== 
     psi = 0.187*[#  28]+0.187*[#  32]+0.187*[#  36]+0.187*[#  40]+0.024*[#  29]
          +0.024*[#  30]+0.024*[#  33]+0.024*[#  34]+0.024*[#  37]+0.024*[#  38]
          +0.024*[#  41]+0.024*[#  42]+0.007*[#   6]+0.007*[#  19]+0.006*[#  27]
          +0.006*[#  31]+0.006*[#  35]+0.006*[#  39]+0.004*[#   3]+0.004*[#  16]
          +0.001*[#  10]+0.001*[#  11]+0.001*[#  23]+0.001*[#  24]
    |psi|^2 = 0.991
==== e(  26) =    10.76230 eV ==== 
     psi = 0.249*[#   9]+0.249*[#  22]+0.067*[#  28]+0.067*[#  32]+0.067*[#  36]
          +0.067*[#  40]+0.021*[#  12]+0.021*[#  13]+0.021*[#  25]+0.021*[#  26]
          +0.014*[#  27]+0.014*[#  31]+0.014*[#  35]+0.014*[#  39]+0.009*[#  29]
          +0.009*[#  30]+0.009*[#  33]+0.009*[#  34]+0.009*[#  37]+0.009*[#  38]
          +0.009*[#  41]+0.009*[#  42]+0.005*[#   2]+0.005*[#  15]
    |psi|^2 = 0.993
==== e(  27) =    13.04982 eV ==== 
     psi = 0.088*[#  12]+0.088*[#  13]+0.088*[#  25]+0.088*[#  26]+0.067*[#  29]
          +0.067*[#  30]+0.067*[#  33]+0.067*[#  34]+0.067*[#  37]+0.067*[#  38]
          +0.067*[#  41]+0.067*[#  42]+0.010*[#   9]+0.010*[#  22]+0.009*[#  27]
          +0.009*[#  31]+0.009*[#  35]+0.009*[#  39]+0.006*[#   2]+0.006*[#  15]
          +0.005*[#  28]+0.005*[#  32]+0.005*[#  36]+0.005*[#  40]
    |psi|^2 = 0.980
==== e(  28) =    13.17733 eV ==== 
     psi = 0.122*[#  10]+0.122*[#  11]+0.122*[#  23]+0.122*[#  24]+0.049*[#  29]
          +0.049*[#  30]+0.049*[#  33]+0.049*[#  34]+0.049*[#  37]+0.049*[#  38]
          +0.049*[#  41]+0.049*[#  42]+0.016*[#  27]+0.016*[#  31]+0.016*[#  35]
          +0.016*[#  39]+0.006*[#   6]+0.006*[#  19]+0.002*[#  28]+0.002*[#  32]
          +0.002*[#  36]+0.002*[#  40]
    |psi|^2 = 0.968
==== e(  29) =    13.24110 eV ==== 
     psi = 0.090*[#  12]+0.090*[#  13]+0.090*[#  25]+0.090*[#  26]+0.076*[#  29]
          +0.076*[#  30]+0.076*[#  33]+0.076*[#  34]+0.076*[#  37]+0.076*[#  38]
          +0.076*[#  41]+0.076*[#  42]+0.003*[#   7]+0.003*[#   8]+0.003*[#  20]
          +0.003*[#  21]
    |psi|^2 = 0.984
==== e(  30) =    13.30432 eV ==== 
     psi = 0.125*[#  10]+0.125*[#  11]+0.125*[#  23]+0.125*[#  24]+0.044*[#  29]
          +0.044*[#  30]+0.044*[#  33]+0.044*[#  34]+0.044*[#  37]+0.044*[#  38]
          +0.044*[#  41]+0.044*[#  42]+0.019*[#  28]+0.019*[#  32]+0.019*[#  36]
          +0.019*[#  40]+0.009*[#  27]+0.009*[#  31]+0.009*[#  35]+0.009*[#  39]
          +0.002*[#   6]+0.002*[#  19]
    |psi|^2 = 0.966

 k =   0.1539600718  0.0000000000  0.0000000000
==== e(   1) =   -50.20637 eV ==== 
     psi = 0.456*[#   1]+0.456*[#  14]+0.017*[#   7]+0.017*[#   8]+0.017*[#  20]
          +0.017*[#  21]+0.004*[#  28]+0.004*[#  32]+0.004*[#  36]+0.004*[#  40]
          
    |psi|^2 = 1.000
==== e(   2) =   -50.20637 eV ==== 
     psi = 0.456*[#   1]+0.456*[#  14]+0.017*[#   7]+0.017*[#   8]+0.017*[#  20]
          +0.017*[#  21]+0.004*[#  28]+0.004*[#  32]+0.004*[#  36]+0.004*[#  40]
          
    |psi|^2 = 1.000
==== e(   3) =   -24.40458 eV ==== 
     psi = 0.487*[#   3]+0.487*[#  16]+0.003*[#   6]+0.003*[#  19]+0.002*[#  27]
          +0.002*[#  31]+0.002*[#  35]+0.002*[#  39]+0.002*[#  28]+0.002*[#  32]
          +0.002*[#  36]+0.002*[#  40]
    |psi|^2 = 1.000
==== e(   4) =   -24.40455 eV ==== 
     psi = 0.487*[#   3]+0.487*[#  16]+0.003*[#   6]+0.003*[#  19]+0.002*[#  27]
          +0.002*[#  31]+0.002*[#  35]+0.002*[#  39]+0.002*[#  28]+0.002*[#  32]
          +0.002*[#  36]+0.002*[#  40]
    |psi|^2 = 1.000
==== e(   5) =   -24.16736 eV ==== 
     psi = 0.245*[#   4]+0.245*[#   5]+0.245*[#  17]+0.245*[#  18]+0.005*[#   2]
          +0.005*[#  15]+0.001*[#   7]+0.001*[#   8]+0.001*[#  20]+0.001*[#  21]
          
    |psi|^2 = 1.000
==== e(   6) =   -24.16730 eV ==== 
     psi = 0.244*[#   4]+0.244*[#   5]+0.244*[#  17]+0.244*[#  18]+0.005*[#   2]
          +0.005*[#  15]+0.001*[#   7]+0.001*[#   8]+0.001*[#  20]+0.001*[#  21]
          
    |psi|^2 = 1.000
==== e(   7) =   -24.11377 eV ==== 
     psi = 0.242*[#   4]+0.242*[#   5]+0.242*[#  17]+0.242*[#  18]+0.007*[#   7]
          +0.007*[#   8]+0.007*[#  20]+0.007*[#  21]
    |psi|^2 = 1.000
==== e(   8) =   -24.11376 eV ==== 
     psi = 0.242*[#   4]+0.242*[#   5]+0.242*[#  17]+0.242*[#  18]+0.007*[#   7]
          +0.007*[#   8]+0.007*[#  20]+0.007*[#  21]
    |psi|^2 = 1.000
==== e(   9) =    -3.53228 eV ==== 
     psi = 0.134*[#   2]+0.134*[#  15]+0.133*[#  27]+0.133*[#  31]+0.133*[#  35]
          +0.133*[#  39]+0.038*[#   7]+0.038*[#   8]+0.038*[#  20]+0.038*[#  21]
          +0.011*[#   1]+0.011*[#  14]+0.002*[#   9]+0.002*[#  22]+0.001*[#  29]
          +0.001*[#  30]+0.001*[#  33]+0.001*[#  34]+0.001*[#  37]+0.001*[#  38]
          +0.001*[#  41]+0.001*[#  42]+0.001*[#  12]+0.001*[#  13]+0.001*[#  25]
          +0.001*[#  26]
    |psi|^2 = 0.999
==== e(  10) =    -3.22522 eV ==== 
     psi = 0.137*[#  27]+0.137*[#  31]+0.137*[#  35]+0.137*[#  39]+0.127*[#   2]
          +0.127*[#  15]+0.035*[#   7]+0.035*[#   8]+0.035*[#  20]+0.035*[#  21]
          +0.012*[#   1]+0.012*[#  14]+0.005*[#  28]+0.005*[#  32]+0.005*[#  36]
          +0.005*[#  40]+0.001*[#  12]+0.001*[#  13]+0.001*[#  25]+0.001*[#  26]
          +0.001*[#   9]+0.001*[#  22]
    |psi|^2 = 0.999
==== e(  11) =    -2.53017 eV ==== 
     psi = 0.195*[#   6]+0.195*[#  19]+0.141*[#  27]+0.141*[#  31]+0.141*[#  35]
          +0.141*[#  39]+0.008*[#   3]+0.008*[#  16]+0.006*[#  10]+0.006*[#  11]
          +0.006*[#  23]+0.006*[#  24]
    |psi|^2 = 0.999
==== e(  12) =    -2.07011 eV ==== 
     psi = 0.163*[#  27]+0.163*[#  31]+0.163*[#  35]+0.163*[#  39]+0.149*[#   6]
          +0.149*[#  19]+0.009*[#   3]+0.009*[#  16]+0.007*[#  10]+0.007*[#  11]
          +0.007*[#  23]+0.007*[#  24]
    |psi|^2 = 0.999
==== e(  13) =     4.60632 eV ==== 
     psi = 0.161*[#  28]+0.161*[#  32]+0.161*[#  36]+0.161*[#  40]+0.118*[#   9]
          +0.118*[#  22]+0.013*[#   2]+0.013*[#  15]+0.009*[#   1]+0.009*[#  14]
          +0.008*[#  27]+0.008*[#  31]+0.008*[#  35]+0.008*[#  39]+0.004*[#  12]
          +0.004*[#  13]+0.004*[#  25]+0.004*[#  26]+0.001*[#  29]+0.001*[#  30]
          +0.001*[#  33]+0.001*[#  34]+0.001*[#  37]+0.001*[#  38]+0.001*[#  41]
          +0.001*[#  42]
    |psi|^2 = 0.992
==== e(  14) =     5.71292 eV ==== 
     psi = 0.184*[#   9]+0.184*[#  22]+0.109*[#  28]+0.109*[#  32]+0.109*[#  36]
          +0.109*[#  40]+0.020*[#  27]+0.020*[#  31]+0.020*[#  35]+0.020*[#  39]
          +0.017*[#   2]+0.017*[#  15]+0.008*[#   1]+0.008*[#  14]+0.007*[#  12]
          +0.007*[#  13]+0.007*[#  25]+0.007*[#  26]+0.002*[#  29]+0.002*[#  30]
          +0.002*[#  33]+0.002*[#  34]+0.002*[#  37]+0.002*[#  38]+0.002*[#  41]
          +0.002*[#  42]+0.001*[#   7]+0.001*[#   8]+0.001*[#  20]+0.001*[#  21]
          
    |psi|^2 = 0.987
==== e(  15) =     7.16509 eV ==== 
     psi = 0.163*[#  28]+0.163*[#  32]+0.163*[#  36]+0.163*[#  40]+0.048*[#  10]
          +0.048*[#  11]+0.048*[#  23]+0.048*[#  24]+0.026*[#   6]+0.026*[#  19]
          +0.011*[#  29]+0.011*[#  30]+0.011*[#  33]+0.011*[#  34]+0.011*[#  37]
          +0.011*[#  38]+0.011*[#  41]+0.011*[#  42]+0.003*[#  27]+0.003*[#  31]
[...]
          +0.068*[#  41]+0.068*[#  42]
    |psi|^2 = 0.994
==== e(  14) =     5.08198 eV ==== 
     psi = 0.112*[#  10]+0.112*[#  11]+0.112*[#  23]+0.112*[#  24]+0.068*[#  29]
          +0.068*[#  30]+0.068*[#  33]+0.068*[#  34]+0.068*[#  37]+0.068*[#  38]
          +0.068*[#  41]+0.068*[#  42]
    |psi|^2 = 0.994
==== e(  15) =     5.79808 eV ==== 
     psi = 0.090*[#   9]+0.090*[#  22]+0.085*[#  29]+0.085*[#  30]+0.085*[#  33]
          +0.085*[#  34]+0.085*[#  37]+0.085*[#  38]+0.085*[#  41]+0.085*[#  42]
          +0.049*[#   2]+0.049*[#  15]+0.005*[#  28]+0.005*[#  32]+0.005*[#  36]
          +0.005*[#  40]+0.002*[#   1]+0.002*[#  14]+0.001*[#  10]+0.001*[#  11]
          +0.001*[#  23]+0.001*[#  24]
    |psi|^2 = 0.995
==== e(  16) =     5.79834 eV ==== 
     psi = 0.090*[#   9]+0.090*[#  22]+0.085*[#  29]+0.085*[#  30]+0.085*[#  33]
          +0.085*[#  34]+0.085*[#  37]+0.085*[#  38]+0.085*[#  41]+0.085*[#  42]
          +0.049*[#   2]+0.049*[#  15]+0.005*[#  28]+0.005*[#  32]+0.005*[#  36]
          +0.005*[#  40]+0.002*[#   1]+0.002*[#  14]+0.001*[#  10]+0.001*[#  11]
          +0.001*[#  23]+0.001*[#  24]
    |psi|^2 = 0.995
==== e(  17) =     6.42850 eV ==== 
     psi = 0.088*[#  29]+0.088*[#  30]+0.088*[#  33]+0.088*[#  34]+0.088*[#  37]
          +0.088*[#  38]+0.088*[#  41]+0.088*[#  42]+0.034*[#  12]+0.034*[#  13]
          +0.034*[#  25]+0.034*[#  26]+0.030*[#   7]+0.030*[#   8]+0.030*[#  20]
          +0.030*[#  21]+0.003*[#   4]+0.003*[#   5]+0.003*[#  17]+0.003*[#  18]
          +0.002*[#   9]+0.002*[#  22]+0.002*[#  28]+0.002*[#  32]+0.002*[#  36]
          +0.002*[#  40]+0.002*[#  10]+0.002*[#  11]+0.002*[#  23]+0.002*[#  24]
          
    |psi|^2 = 0.994
==== e(  18) =     6.44282 eV ==== 
     psi = 0.088*[#  29]+0.088*[#  30]+0.088*[#  33]+0.088*[#  34]+0.088*[#  37]
          +0.088*[#  38]+0.088*[#  41]+0.088*[#  42]+0.035*[#  12]+0.035*[#  13]
          +0.035*[#  25]+0.035*[#  26]+0.030*[#   7]+0.030*[#   8]+0.030*[#  20]
          +0.030*[#  21]+0.003*[#   4]+0.003*[#   5]+0.003*[#  17]+0.003*[#  18]
          +0.002*[#   9]+0.002*[#  22]+0.002*[#  28]+0.002*[#  32]+0.002*[#  36]
          +0.002*[#  40]+0.001*[#  10]+0.001*[#  11]+0.001*[#  23]+0.001*[#  24]
          
    |psi|^2 = 0.994
==== e(  19) =     6.76386 eV ==== 
     psi = 0.125*[#  28]+0.125*[#  32]+0.125*[#  36]+0.125*[#  40]+0.045*[#  12]
          +0.045*[#  13]+0.045*[#  25]+0.045*[#  26]+0.026*[#  29]+0.026*[#  30]
          +0.026*[#  33]+0.026*[#  34]+0.026*[#  37]+0.026*[#  38]+0.026*[#  41]
          +0.026*[#  42]+0.017*[#  27]+0.017*[#  31]+0.017*[#  35]+0.017*[#  39]
          +0.009*[#   6]+0.009*[#  19]+0.003*[#   7]+0.003*[#   8]+0.003*[#  20]
          +0.003*[#  21]+0.002*[#   4]+0.002*[#   5]+0.002*[#  17]+0.002*[#  18]
          +0.001*[#   3]+0.001*[#  16]
    |psi|^2 = 0.996
==== e(  20) =     6.76505 eV ==== 
     psi = 0.125*[#  28]+0.125*[#  32]+0.125*[#  36]+0.125*[#  40]+0.045*[#  12]
          +0.045*[#  13]+0.045*[#  25]+0.045*[#  26]+0.026*[#  29]+0.026*[#  30]
          +0.026*[#  33]+0.026*[#  34]+0.026*[#  37]+0.026*[#  38]+0.026*[#  41]
          +0.026*[#  42]+0.017*[#  27]+0.017*[#  31]+0.017*[#  35]+0.017*[#  39]
          +0.009*[#   6]+0.009*[#  19]+0.003*[#   7]+0.003*[#   8]+0.003*[#  20]
          +0.003*[#  21]+0.002*[#   4]+0.002*[#   5]+0.002*[#  17]+0.002*[#  18]
          +0.001*[#   3]+0.001*[#  16]
    |psi|^2 = 0.996
==== e(  21) =     7.73589 eV ==== 
     psi = 0.086*[#  29]+0.086*[#  30]+0.086*[#  33]+0.086*[#  34]+0.086*[#  37]
          +0.086*[#  38]+0.086*[#  41]+0.086*[#  42]+0.032*[#   6]+0.032*[#  19]
          +0.028*[#  28]+0.028*[#  32]+0.028*[#  36]+0.028*[#  40]+0.017*[#  12]
          +0.017*[#  13]+0.017*[#  25]+0.017*[#  26]+0.010*[#  27]+0.010*[#  31]
          +0.010*[#  35]+0.010*[#  39]+0.004*[#   3]+0.004*[#  16]+0.002*[#   7]
          +0.002*[#   8]+0.002*[#  20]+0.002*[#  21]+0.001*[#  10]+0.001*[#  11]
          +0.001*[#  23]+0.001*[#  24]
    |psi|^2 = 0.992
==== e(  22) =     7.74098 eV ==== 
     psi = 0.087*[#  29]+0.087*[#  30]+0.087*[#  33]+0.087*[#  34]+0.087*[#  37]
          +0.087*[#  38]+0.087*[#  41]+0.087*[#  42]+0.033*[#   6]+0.033*[#  19]
          +0.026*[#  28]+0.026*[#  32]+0.026*[#  36]+0.026*[#  40]+0.017*[#  12]
          +0.017*[#  13]+0.017*[#  25]+0.017*[#  26]+0.010*[#  27]+0.010*[#  31]
          +0.010*[#  35]+0.010*[#  39]+0.004*[#   3]+0.004*[#  16]+0.002*[#   7]
          +0.002*[#   8]+0.002*[#  20]+0.002*[#  21]
    |psi|^2 = 0.992
==== e(  23) =     8.25822 eV ==== 
     psi = 0.160*[#  28]+0.160*[#  32]+0.160*[#  36]+0.160*[#  40]+0.062*[#  10]
          +0.062*[#  11]+0.062*[#  23]+0.062*[#  24]+0.022*[#  27]+0.022*[#  31]
          +0.022*[#  35]+0.022*[#  39]+0.004*[#   9]+0.004*[#  22]+0.003*[#   2]
          +0.003*[#  15]+0.001*[#  29]+0.001*[#  30]+0.001*[#  33]+0.001*[#  34]
          +0.001*[#  37]+0.001*[#  38]+0.001*[#  41]+0.001*[#  42]
    |psi|^2 = 0.996
==== e(  24) =     8.26394 eV ==== 
     psi = 0.158*[#  28]+0.158*[#  32]+0.158*[#  36]+0.158*[#  40]+0.061*[#  10]
          +0.061*[#  11]+0.061*[#  23]+0.061*[#  24]+0.021*[#  27]+0.021*[#  31]
          +0.021*[#  35]+0.021*[#  39]+0.004*[#   9]+0.004*[#  22]+0.003*[#   2]
          +0.003*[#  15]+0.003*[#  29]+0.003*[#  30]+0.003*[#  33]+0.003*[#  34]
          +0.003*[#  37]+0.003*[#  38]+0.003*[#  41]+0.003*[#  42]
    |psi|^2 = 0.996
==== e(  25) =    10.61203 eV ==== 
     psi = 0.193*[#  12]+0.193*[#  13]+0.193*[#  25]+0.193*[#  26]+0.025*[#  29]
          +0.025*[#  30]+0.025*[#  33]+0.025*[#  34]+0.025*[#  37]+0.025*[#  38]
          +0.025*[#  41]+0.025*[#  42]+0.004*[#   7]+0.004*[#   8]+0.004*[#  20]
          +0.004*[#  21]
    |psi|^2 = 0.992
==== e(  26) =    10.62155 eV ==== 
     psi = 0.193*[#  12]+0.193*[#  13]+0.193*[#  25]+0.193*[#  26]+0.025*[#  29]
          +0.025*[#  30]+0.025*[#  33]+0.025*[#  34]+0.025*[#  37]+0.025*[#  38]
          +0.025*[#  41]+0.025*[#  42]+0.004*[#   7]+0.004*[#   8]+0.004*[#  20]
          +0.004*[#  21]
    |psi|^2 = 0.992
==== e(  27) =    12.44783 eV ==== 
     psi = 0.393*[#   9]+0.393*[#  22]+0.026*[#   2]+0.026*[#  15]+0.018*[#  29]
          +0.018*[#  30]+0.018*[#  33]+0.018*[#  34]+0.018*[#  37]+0.018*[#  38]
          +0.018*[#  41]+0.018*[#  42]
    |psi|^2 = 0.987
==== e(  28) =    12.44831 eV ==== 
     psi = 0.393*[#   9]+0.393*[#  22]+0.026*[#   2]+0.026*[#  15]+0.018*[#  29]
          +0.018*[#  30]+0.018*[#  33]+0.018*[#  34]+0.018*[#  37]+0.018*[#  38]
          +0.018*[#  41]+0.018*[#  42]
    |psi|^2 = 0.987
==== e(  29) =    13.39068 eV ==== 
     psi = 0.113*[#  10]+0.113*[#  11]+0.113*[#  23]+0.113*[#  24]+0.052*[#  29]
          +0.052*[#  30]+0.052*[#  33]+0.052*[#  34]+0.052*[#  37]+0.052*[#  38]
          +0.052*[#  41]+0.052*[#  42]+0.002*[#  12]+0.002*[#  13]+0.002*[#  25]
          +0.002*[#  26]
    |psi|^2 = 0.876
==== e(  30) =    13.44563 eV ==== 
     psi = 0.113*[#  10]+0.113*[#  11]+0.113*[#  23]+0.113*[#  24]+0.052*[#  29]
          +0.052*[#  30]+0.052*[#  33]+0.052*[#  34]+0.052*[#  37]+0.052*[#  38]
          +0.052*[#  41]+0.052*[#  42]+0.002*[#  12]+0.002*[#  13]+0.002*[#  25]
          +0.002*[#  26]
    |psi|^2 = 0.878

 k =   0.5767729189  0.3330000000  0.1280487805
==== e(   1) =   -50.16546 eV ==== 
     psi = 0.476*[#   1]+0.476*[#  14]+0.015*[#   2]+0.015*[#  15]+0.002*[#  29]
          +0.002*[#  30]+0.002*[#  33]+0.002*[#  34]+0.002*[#  37]+0.002*[#  38]
          +0.002*[#  41]+0.002*[#  42]
    |psi|^2 = 1.000
==== e(   2) =   -50.16546 eV ==== 
     psi = 0.476*[#   1]+0.476*[#  14]+0.015*[#   2]+0.015*[#  15]+0.002*[#  29]
          +0.002*[#  30]+0.002*[#  33]+0.002*[#  34]+0.002*[#  37]+0.002*[#  38]
          +0.002*[#  41]+0.002*[#  42]
    |psi|^2 = 1.000
==== e(   3) =   -24.40454 eV ==== 
     psi = 0.241*[#   4]+0.241*[#   5]+0.241*[#  17]+0.241*[#  18]+0.004*[#  28]
          +0.004*[#  32]+0.004*[#  36]+0.004*[#  40]+0.002*[#  27]+0.002*[#  31]
          +0.002*[#  35]+0.002*[#  39]+0.002*[#  12]+0.002*[#  13]+0.002*[#  25]
          +0.002*[#  26]
    |psi|^2 = 1.000
==== e(   4) =   -24.40454 eV ==== 
     psi = 0.241*[#   4]+0.241*[#   5]+0.241*[#  17]+0.241*[#  18]+0.004*[#  28]
          +0.004*[#  32]+0.004*[#  36]+0.004*[#  40]+0.002*[#  27]+0.002*[#  31]
          +0.002*[#  35]+0.002*[#  39]+0.002*[#  12]+0.002*[#  13]+0.002*[#  25]
          +0.002*[#  26]
    |psi|^2 = 1.000
==== e(   5) =   -24.36022 eV ==== 
     psi = 0.244*[#   4]+0.244*[#   5]+0.244*[#  17]+0.244*[#  18]+0.002*[#  12]
          +0.002*[#  13]+0.002*[#  25]+0.002*[#  26]+0.002*[#  29]+0.002*[#  30]
          +0.002*[#  33]+0.002*[#  34]+0.002*[#  37]+0.002*[#  38]+0.002*[#  41]
          +0.002*[#  42]
    |psi|^2 = 1.000
==== e(   6) =   -24.36022 eV ==== 
     psi = 0.244*[#   4]+0.244*[#   5]+0.244*[#  17]+0.244*[#  18]+0.002*[#  12]
          +0.002*[#  13]+0.002*[#  25]+0.002*[#  26]+0.002*[#  29]+0.002*[#  30]
          +0.002*[#  33]+0.002*[#  34]+0.002*[#  37]+0.002*[#  38]+0.002*[#  41]
          +0.002*[#  42]
    |psi|^2 = 1.000
==== e(   7) =   -24.32513 eV ==== 
     psi = 0.485*[#   3]+0.485*[#  16]+0.005*[#   6]+0.005*[#  19]+0.002*[#  29]
          +0.002*[#  30]+0.002*[#  33]+0.002*[#  34]+0.002*[#  37]+0.002*[#  38]
          +0.002*[#  41]+0.002*[#  42]
    |psi|^2 = 1.000
==== e(   8) =   -24.32513 eV ==== 
     psi = 0.485*[#   3]+0.485*[#  16]+0.005*[#   6]+0.005*[#  19]+0.002*[#  29]
          +0.002*[#  30]+0.002*[#  33]+0.002*[#  34]+0.002*[#  37]+0.002*[#  38]
          +0.002*[#  41]+0.002*[#  42]
    |psi|^2 = 1.000
==== e(   9) =    -1.38445 eV ==== 
     psi = 0.197*[#  27]+0.197*[#  31]+0.197*[#  35]+0.197*[#  39]+0.023*[#   7]
          +0.023*[#   8]+0.023*[#  20]+0.023*[#  21]+0.022*[#  12]+0.022*[#  13]
          +0.022*[#  25]+0.022*[#  26]+0.003*[#   4]+0.003*[#   5]+0.003*[#  17]
          +0.003*[#  18]+0.003*[#  28]+0.003*[#  32]+0.003*[#  36]+0.003*[#  40]
          
    |psi|^2 = 0.999
==== e(  10) =    -1.38445 eV ==== 
     psi = 0.197*[#  27]+0.197*[#  31]+0.197*[#  35]+0.197*[#  39]+0.023*[#   7]
          +0.023*[#   8]+0.023*[#  20]+0.023*[#  21]+0.022*[#  12]+0.022*[#  13]
          +0.022*[#  25]+0.022*[#  26]+0.003*[#   4]+0.003*[#   5]+0.003*[#  17]
          +0.003*[#  18]+0.003*[#  28]+0.003*[#  32]+0.003*[#  36]+0.003*[#  40]
          
    |psi|^2 = 0.999
==== e(  11) =    -1.38144 eV ==== 
     psi = 0.202*[#  27]+0.202*[#  31]+0.202*[#  35]+0.202*[#  39]+0.046*[#  10]
          +0.046*[#  11]+0.046*[#  23]+0.046*[#  24]
    |psi|^2 = 1.000
==== e(  12) =    -1.38144 eV ==== 
     psi = 0.202*[#  27]+0.202*[#  31]+0.202*[#  35]+0.202*[#  39]+0.046*[#  10]
          +0.046*[#  11]+0.046*[#  23]+0.046*[#  24]
    |psi|^2 = 1.000
==== e(  13) =     5.07518 eV ==== 
     psi = 0.112*[#  10]+0.112*[#  11]+0.112*[#  23]+0.112*[#  24]+0.068*[#  29]
          +0.068*[#  30]+0.068*[#  33]+0.068*[#  34]+0.068*[#  37]+0.068*[#  38]
          +0.068*[#  41]+0.068*[#  42]
    |psi|^2 = 0.994
==== e(  14) =     5.07518 eV ==== 
     psi = 0.112*[#  10]+0.112*[#  11]+0.112*[#  23]+0.112*[#  24]+0.068*[#  29]
          +0.068*[#  30]+0.068*[#  33]+0.068*[#  34]+0.068*[#  37]+0.068*[#  38]
          +0.068*[#  41]+0.068*[#  42]
    |psi|^2 = 0.994
==== e(  15) =     5.80839 eV ==== 
     psi = 0.092*[#   9]+0.092*[#  22]+0.085*[#  29]+0.085*[#  30]+0.085*[#  33]
          +0.085*[#  34]+0.085*[#  37]+0.085*[#  38]+0.085*[#  41]+0.085*[#  42]
          +0.050*[#   2]+0.050*[#  15]+0.005*[#  28]+0.005*[#  32]+0.005*[#  36]
          +0.005*[#  40]+0.002*[#   1]+0.002*[#  14]+0.001*[#  10]+0.001*[#  11]
          +0.001*[#  23]+0.001*[#  24]
    |psi|^2 = 0.995
==== e(  16) =     5.80839 eV ==== 
     psi = 0.092*[#   9]+0.092*[#  22]+0.085*[#  29]+0.085*[#  30]+0.085*[#  33]
          +0.085*[#  34]+0.085*[#  37]+0.085*[#  38]+0.085*[#  41]+0.085*[#  42]
          +0.050*[#   2]+0.050*[#  15]+0.005*[#  28]+0.005*[#  32]+0.005*[#  36]
          +0.005*[#  40]+0.002*[#   1]+0.002*[#  14]+0.001*[#  10]+0.001*[#  11]
          +0.001*[#  23]+0.001*[#  24]
    |psi|^2 = 0.995
==== e(  17) =     6.42672 eV ==== 
     psi = 0.089*[#  29]+0.089*[#  30]+0.089*[#  33]+0.089*[#  34]+0.089*[#  37]
          +0.089*[#  38]+0.089*[#  41]+0.089*[#  42]+0.035*[#  12]+0.035*[#  13]
          +0.035*[#  25]+0.035*[#  26]+0.031*[#   7]+0.031*[#   8]+0.031*[#  20]
          +0.031*[#  21]+0.003*[#   4]+0.003*[#   5]+0.003*[#  17]+0.003*[#  18]
          +0.001*[#  10]+0.001*[#  11]+0.001*[#  23]+0.001*[#  24]
    |psi|^2 = 0.994
==== e(  18) =     6.42672 eV ==== 
     psi = 0.089*[#  29]+0.089*[#  30]+0.089*[#  33]+0.089*[#  34]+0.089*[#  37]
          +0.089*[#  38]+0.089*[#  41]+0.089*[#  42]+0.035*[#  12]+0.035*[#  13]
          +0.035*[#  25]+0.035*[#  26]+0.031*[#   7]+0.031*[#   8]+0.031*[#  20]
          +0.031*[#  21]+0.003*[#   4]+0.003*[#   5]+0.003*[#  17]+0.003*[#  18]
          +0.001*[#  10]+0.001*[#  11]+0.001*[#  23]+0.001*[#  24]
    |psi|^2 = 0.994
==== e(  19) =     6.76017 eV ==== 
     psi = 0.127*[#  28]+0.127*[#  32]+0.127*[#  36]+0.127*[#  40]+0.045*[#  12]
          +0.045*[#  13]+0.045*[#  25]+0.045*[#  26]+0.025*[#  29]+0.025*[#  30]
          +0.025*[#  33]+0.025*[#  34]+0.025*[#  37]+0.025*[#  38]+0.025*[#  41]
          +0.025*[#  42]+0.018*[#  27]+0.018*[#  31]+0.018*[#  35]+0.018*[#  39]
          +0.009*[#   6]+0.009*[#  19]+0.003*[#   7]+0.003*[#   8]+0.003*[#  20]
          +0.003*[#  21]+0.002*[#   4]+0.002*[#   5]+0.002*[#  17]+0.002*[#  18]
          +0.001*[#   3]+0.001*[#  16]
    |psi|^2 = 0.996
==== e(  20) =     6.76017 eV ==== 
     psi = 0.127*[#  28]+0.127*[#  32]+0.127*[#  36]+0.127*[#  40]+0.045*[#  12]
          +0.045*[#  13]+0.045*[#  25]+0.045*[#  26]+0.025*[#  29]+0.025*[#  30]
          +0.025*[#  33]+0.025*[#  34]+0.025*[#  37]+0.025*[#  38]+0.025*[#  41]
          +0.025*[#  42]+0.018*[#  27]+0.018*[#  31]+0.018*[#  35]+0.018*[#  39]
          +0.009*[#   6]+0.009*[#  19]+0.003*[#   7]+0.003*[#   8]+0.003*[#  20]
          +0.003*[#  21]+0.002*[#   4]+0.002*[#   5]+0.002*[#  17]+0.002*[#  18]
          +0.001*[#   3]+0.001*[#  16]
    |psi|^2 = 0.996
==== e(  21) =     7.74194 eV ==== 
     psi = 0.087*[#  29]+0.087*[#  30]+0.087*[#  33]+0.087*[#  34]+0.087*[#  37]
          +0.087*[#  38]+0.087*[#  41]+0.087*[#  42]+0.033*[#   6]+0.033*[#  19]
          +0.026*[#  28]+0.026*[#  32]+0.026*[#  36]+0.026*[#  40]+0.017*[#  12]
          +0.017*[#  13]+0.017*[#  25]+0.017*[#  26]+0.010*[#  27]+0.010*[#  31]
          +0.010*[#  35]+0.010*[#  39]+0.004*[#   3]+0.004*[#  16]+0.002*[#   7]
          +0.002*[#   8]+0.002*[#  20]+0.002*[#  21]
    |psi|^2 = 0.992
==== e(  22) =     7.74194 eV ==== 
     psi = 0.087*[#  29]+0.087*[#  30]+0.087*[#  33]+0.087*[#  34]+0.087*[#  37]
          +0.087*[#  38]+0.087*[#  41]+0.087*[#  42]+0.033*[#   6]+0.033*[#  19]
          +0.026*[#  28]+0.026*[#  32]+0.026*[#  36]+0.026*[#  40]+0.017*[#  12]
          +0.017*[#  13]+0.017*[#  25]+0.017*[#  26]+0.010*[#  27]+0.010*[#  31]
          +0.010*[#  35]+0.010*[#  39]+0.004*[#   3]+0.004*[#  16]+0.002*[#   7]
          +0.002*[#   8]+0.002*[#  20]+0.002*[#  21]
    |psi|^2 = 0.992
==== e(  23) =     8.25679 eV ==== 
     psi = 0.160*[#  28]+0.160*[#  32]+0.160*[#  36]+0.160*[#  40]+0.062*[#  10]
          +0.062*[#  11]+0.062*[#  23]+0.062*[#  24]+0.022*[#  27]+0.022*[#  31]
          +0.022*[#  35]+0.022*[#  39]+0.004*[#   9]+0.004*[#  22]+0.003*[#   2]
          +0.003*[#  15]+0.001*[#  29]+0.001*[#  30]+0.001*[#  33]+0.001*[#  34]
          +0.001*[#  37]+0.001*[#  38]+0.001*[#  41]+0.001*[#  42]
    |psi|^2 = 0.996
==== e(  24) =     8.25679 eV ==== 
     psi = 0.160*[#  28]+0.160*[#  32]+0.160*[#  36]+0.160*[#  40]+0.062*[#  10]
          +0.062*[#  11]+0.062*[#  23]+0.062*[#  24]+0.022*[#  27]+0.022*[#  31]
          +0.022*[#  35]+0.022*[#  39]+0.004*[#   9]+0.004*[#  22]+0.003*[#   2]
          +0.003*[#  15]+0.001*[#  29]+0.001*[#  30]+0.001*[#  33]+0.001*[#  34]
          +0.001*[#  37]+0.001*[#  38]+0.001*[#  41]+0.001*[#  42]
    |psi|^2 = 0.996
==== e(  25) =    10.61997 eV ==== 
     psi = 0.194*[#  12]+0.194*[#  13]+0.194*[#  25]+0.194*[#  26]+0.025*[#  29]
          +0.025*[#  30]+0.025*[#  33]+0.025*[#  34]+0.025*[#  37]+0.025*[#  38]
          +0.025*[#  41]+0.025*[#  42]+0.004*[#   7]+0.004*[#   8]+0.004*[#  20]
          +0.004*[#  21]
    |psi|^2 = 0.992
==== e(  26) =    10.61997 eV ==== 
     psi = 0.194*[#  12]+0.194*[#  13]+0.194*[#  25]+0.194*[#  26]+0.025*[#  29]
          +0.025*[#  30]+0.025*[#  33]+0.025*[#  34]+0.025*[#  37]+0.025*[#  38]
          +0.025*[#  41]+0.025*[#  42]+0.004*[#   7]+0.004*[#   8]+0.004*[#  20]
          +0.004*[#  21]
    |psi|^2 = 0.992
==== e(  27) =    12.44438 eV ==== 
     psi = 0.395*[#   9]+0.395*[#  22]+0.027*[#   2]+0.027*[#  15]+0.018*[#  29]
          +0.018*[#  30]+0.018*[#  33]+0.018*[#  34]+0.018*[#  37]+0.018*[#  38]
          +0.018*[#  41]+0.018*[#  42]
    |psi|^2 = 0.987
==== e(  28) =    12.44438 eV ==== 
     psi = 0.395*[#   9]+0.395*[#  22]+0.027*[#   2]+0.027*[#  15]+0.018*[#  29]
          +0.018*[#  30]+0.018*[#  33]+0.018*[#  34]+0.018*[#  37]+0.018*[#  38]
          +0.018*[#  41]+0.018*[#  42]
    |psi|^2 = 0.987
==== e(  29) =    13.41657 eV ==== 
     psi = 0.113*[#  10]+0.113*[#  11]+0.113*[#  23]+0.113*[#  24]+0.052*[#  29]
          +0.052*[#  30]+0.052*[#  33]+0.052*[#  34]+0.052*[#  37]+0.052*[#  38]
          +0.052*[#  41]+0.052*[#  42]+0.001*[#  12]+0.001*[#  13]+0.001*[#  25]
          +0.001*[#  26]
    |psi|^2 = 0.877
==== e(  30) =    13.41657 eV ==== 
     psi = 0.113*[#  10]+0.113*[#  11]+0.113*[#  23]+0.113*[#  24]+0.052*[#  29]
          +0.052*[#  30]+0.052*[#  33]+0.052*[#  34]+0.052*[#  37]+0.052*[#  38]
          +0.052*[#  41]+0.052*[#  42]+0.001*[#  12]+0.001*[#  13]+0.001*[#  25]
          +0.001*[#  26]
    |psi|^2 = 0.877

Lowdin Charges: 

     Atom #   1: total charge =   9.9875, s =  2.3098, 
     Atom #   1: total charge =   9.9875, p =  6.6364, pz=  2.3217, px=  2.1573, py=  2.1573, 
     Atom #   1: total charge =   9.9875, d =  1.0413, dz2=  0.2734, dxz=  0.2484, dyz=  0.2484, dx2-y2=  0.1356, dxy=  0.1356, 
     Atom #   2: total charge =   9.9875, s =  2.3098, 
     Atom #   2: total charge =   9.9875, p =  6.6364, pz=  2.3217, px=  2.1573, py=  2.1573, 
     Atom #   2: total charge =   9.9875, d =  1.0413, dz2=  0.2734, dxz=  0.2484, dyz=  0.2484, dx2-y2=  0.1356, dxy=  0.1356, 
     Atom #   3: total charge =   2.2573, s =  1.4049, 
     Atom #   3: total charge =   2.2573, p =  0.8524, pz=  0.2798, px=  0.2863, py=  0.2863, 
     Atom #   3: total charge =   2.2573, d =  0.0000, dz2=  0.0000, dxz=  0.0000, dyz=  0.0000, dx2-y2=  0.0000, dxy=  0.0000, 
     Atom #   4: total charge =   2.2573, s =  1.4049, 
     Atom #   4: total charge =   2.2573, p =  0.8524, pz=  0.2798, px=  0.2863, py=  0.2863, 
     Atom #   4: total charge =   2.2573, d =  0.0000, dz2=  0.0000, dxz=  0.0000, dyz=  0.0000, dx2-y2=  0.0000, dxy=  0.0000, 
     Atom #   5: total charge =   2.2573, s =  1.4049, 
     Atom #   5: total charge =   2.2573, p =  0.8524, pz=  0.2798, px=  0.2863, py=  0.2863, 
     Atom #   5: total charge =   2.2573, d =  0.0000, dz2=  0.0000, dxz=  0.0000, dyz=  0.0000, dx2-y2=  0.0000, dxy=  0.0000, 
     Atom #   6: total charge =   2.2573, s =  1.4049, 
     Atom #   6: total charge =   2.2573, p =  0.8524, pz=  0.2798, px=  0.2863, py=  0.2863, 
     Atom #   6: total charge =   2.2573, d =  0.0000, dz2=  0.0000, dxz=  0.0000, dyz=  0.0000, dx2-y2=  0.0000, dxy=  0.0000, 
     Spilling Parameter:   0.4422

     PROJWFC      :   2m22.92s CPU   2m27.95s WALL


   This run was terminated on:   3: 4:21  18May2020            

=------------------------------------------------------------------------------=
   JOB DONE.
=------------------------------------------------------------------------------=
