
     Program PWSCF v.6.5 starts on 18May2020 at  2:16: 4 

     This program is part of the open-source Quantum ESPRESSO suite
     for quantum simulation of materials; please cite
         "P. Giannozzi et al., J. Phys.:Condens. Matter 21 395502 (2009);
         "P. Giannozzi et al., J. Phys.:Condens. Matter 29 465901 (2017);
          URL http://www.quantum-espresso.org", 
     in publications or presentations arising from this work. More details at
     http://www.quantum-espresso.org/quote

     Serial version
     Waiting for input...
     Reading input from standard input

     Current dimensions of program PWSCF are:
     Max number of different atomic species (ntypx) = 10
     Max number of k-points (npk) =  40000
     Max angular momentum in pseudopotentials (lmaxx) =  3

     IMPORTANT: XC functional enforced from input :
     Exchange-correlation= PBE
                           (   1   4   3   4   0   0   0)
     Any further DFT definition will be discarded
     Please, verify this is what you really want

               file Mo.pbe-spn-kjpaw_psl.0.2.UPF: wavefunction(s)  4D renormalized
               file S.pbe-n-kjpaw_psl.1.0.0.UPF: wavefunction(s)  3S 3P renormalized
     Message from routine setup:
     using ibrav=0 with symmetry is DISCOURAGED, use correct ibrav instead

     G-vector sticks info
     --------------------
     sticks:   dense  smooth     PW     G-vecs:    dense   smooth      PW
     Sum         595     499    151                47487    34107    5739



     bravais-lattice index     =            0
     lattice parameter (alat)  =       5.9526  a.u.
     unit-cell volume          =     713.2692 (a.u.)^3
     number of atoms/cell      =            6
     number of atomic types    =            2
     number of electrons       =        52.00
     number of Kohn-Sham states=           31
     kinetic-energy cutoff     =      50.0000  Ry
     charge density cutoff     =     250.0000  Ry
     convergence threshold     =      1.0E-08
     mixing beta               =       0.7000
     number of iterations used =            8  plain     mixing
     Exchange-correlation= PBE
                           (   1   4   3   4   0   0   0)

     celldm(1)=   5.952637  celldm(2)=   0.000000  celldm(3)=   0.000000
     celldm(4)=   0.000000  celldm(5)=   0.000000  celldm(6)=   0.000000

     crystal axes: (cart. coord. in units of alat)
               a(1) = (   0.866025  -0.500000   0.000000 )  
               a(2) = (   0.000000   1.000000   0.000000 )  
               a(3) = (   0.000000   0.000000   3.904762 )  

     reciprocal axes: (cart. coord. in units 2 pi/alat)
               b(1) = (  1.154701  0.000000  0.000000 )  
               b(2) = (  0.577350  1.000000 -0.000000 )  
               b(3) = ( -0.000000  0.000000  0.256098 )  


     PseudoPot. # 1 for Mo read from file:
     ./Mo.pbe-spn-kjpaw_psl.0.2.UPF
     MD5 check sum: 99c4efbabb9e14294ed14bd31c5e2f8a
     Pseudo is Projector augmented-wave + core cor, Zval = 14.0
     Generated using "atomic" code by A. Dal Corso v.5.0.2 svn rev. 9415
     Shape of augmentation charge: PSQ
     Using radial grid of 1229 points,  6 beta functions with: 
                l(1) =   0
                l(2) =   0
                l(3) =   1
                l(4) =   1
                l(5) =   2
                l(6) =   2
     Q(r) pseudized with 0 coefficients 


     PseudoPot. # 2 for S  read from file:
     ./S.pbe-n-kjpaw_psl.1.0.0.UPF
     MD5 check sum: fb45dfebcf3e72a4e1bd4a866ec2e262
     Pseudo is Projector augmented-wave + core cor, Zval =  6.0
     Generated using "atomic" code by A. Dal Corso v.6.3
     Shape of augmentation charge: PSQ
     Using radial grid of 1151 points,  6 beta functions with: 
                l(1) =   0
                l(2) =   0
                l(3) =   1
                l(4) =   1
                l(5) =   2
                l(6) =   2
     Q(r) pseudized with 0 coefficients 


     atomic species   valence    mass     pseudopotential
        Mo            14.00    95.96000     Mo( 1.00)
        S              6.00    32.06750     S ( 1.00)

     24 Sym. Ops., with inversion, found (12 have fractional translation)



   Cartesian axes

     site n.     atom                  positions (alat units)
         1           Mo  tau(   1) = (   0.2886751   0.5000000   0.9761905  )
         2           Mo  tau(   2) = (   0.5773503  -0.0000000   2.9285714  )
         3           S   tau(   3) = (   0.2886751   0.5000000   2.4248571  )
         4           S   tau(   4) = (   0.2886751   0.5000000   3.4322857  )
         5           S   tau(   5) = (   0.5773503  -0.0000000   0.4724762  )
         6           S   tau(   6) = (   0.5773503  -0.0000000   1.4799048  )

     number of k points=     6  Marzari-Vanderbilt smearing, width (Ry)=  0.0050
                       cart. coord. in units 2pi/alat
        k(    1) = (   0.0000000   0.0000000   0.0000000), wk =   0.0740741
        k(    2) = (   0.0000000   0.0000000   0.0853659), wk =   0.1481481
        k(    3) = (   0.1924501   0.3333333   0.0000000), wk =   0.4444444
        k(    4) = (   0.1924501   0.3333333   0.0853659), wk =   0.8888889
        k(    5) = (   0.5773503   0.3333333   0.0000000), wk =   0.1481481
        k(    6) = (   0.5773503   0.3333333   0.0853659), wk =   0.2962963

     Dense  grid:    47487 G-vectors     FFT dimensions: (  30,  30, 120)

     Smooth grid:    34107 G-vectors     FFT dimensions: (  27,  27, 108)

     Estimated max dynamical RAM per process >     198.79 MB

     Check: negative core charge=   -0.000011

     Initial potential from superposition of free atoms

     starting charge   51.99729, renormalised to   52.00000
     Starting wfcs are   42 randomized atomic wfcs

     total cpu time spent up to now is        6.0 secs

     Self-consistent Calculation

     iteration #  1     ecut=    50.00 Ry     beta= 0.70
     Davidson diagonalization with overlap
     ethr =  1.00E-02,  avg # of iterations =  2.7

     total cpu time spent up to now is       11.7 secs

     total energy              =    -992.78457900 Ry
     Harris-Foulkes estimate   =    -993.52868125 Ry
     estimated scf accuracy    <       0.94595787 Ry

     iteration #  2     ecut=    50.00 Ry     beta= 0.70
     Davidson diagonalization with overlap
     ethr =  1.82E-03,  avg # of iterations =  4.0

     total cpu time spent up to now is       18.9 secs

     total energy              =    -991.62496731 Ry
     Harris-Foulkes estimate   =    -994.86519546 Ry
     estimated scf accuracy    <      13.09070764 Ry

     iteration #  3     ecut=    50.00 Ry     beta= 0.70
     Davidson diagonalization with overlap
     ethr =  1.82E-03,  avg # of iterations =  4.3

     total cpu time spent up to now is       25.0 secs

     total energy              =    -993.33359365 Ry
     Harris-Foulkes estimate   =    -993.39565458 Ry
     estimated scf accuracy    <       0.25002714 Ry

     iteration #  4     ecut=    50.00 Ry     beta= 0.70
     Davidson diagonalization with overlap
     ethr =  4.81E-04,  avg # of iterations =  2.0

     total cpu time spent up to now is       30.0 secs

     total energy              =    -993.35511198 Ry
     Harris-Foulkes estimate   =    -993.36221344 Ry
     estimated scf accuracy    <       0.02238090 Ry

     iteration #  5     ecut=    50.00 Ry     beta= 0.70
     Davidson diagonalization with overlap
     ethr =  4.30E-05,  avg # of iterations =  4.3

     total cpu time spent up to now is       35.5 secs

     total energy              =    -993.36146280 Ry
     Harris-Foulkes estimate   =    -993.36216901 Ry
     estimated scf accuracy    <       0.00305657 Ry

     iteration #  6     ecut=    50.00 Ry     beta= 0.70
     Davidson diagonalization with overlap
     ethr =  5.88E-06,  avg # of iterations =  2.7

     total cpu time spent up to now is       40.4 secs

     total energy              =    -993.36179746 Ry
     Harris-Foulkes estimate   =    -993.36184177 Ry
     estimated scf accuracy    <       0.00011862 Ry

     iteration #  7     ecut=    50.00 Ry     beta= 0.70
     Davidson diagonalization with overlap
     ethr =  2.28E-07,  avg # of iterations =  5.0

     total cpu time spent up to now is       47.1 secs

     total energy              =    -993.36187107 Ry
     Harris-Foulkes estimate   =    -993.36188723 Ry
     estimated scf accuracy    <       0.00008166 Ry

     iteration #  8     ecut=    50.00 Ry     beta= 0.70
     Davidson diagonalization with overlap
     ethr =  1.57E-07,  avg # of iterations =  1.0

     total cpu time spent up to now is       51.6 secs

     total energy              =    -993.36187164 Ry
     Harris-Foulkes estimate   =    -993.36187531 Ry
     estimated scf accuracy    <       0.00001321 Ry

     iteration #  9     ecut=    50.00 Ry     beta= 0.70
     Davidson diagonalization with overlap
     ethr =  2.54E-08,  avg # of iterations =  3.5

     total cpu time spent up to now is       56.9 secs

     total energy              =    -993.36187528 Ry
     Harris-Foulkes estimate   =    -993.36187578 Ry
     estimated scf accuracy    <       0.00000222 Ry

     iteration # 10     ecut=    50.00 Ry     beta= 0.70
     Davidson diagonalization with overlap
     ethr =  4.28E-09,  avg # of iterations =  2.0

     total cpu time spent up to now is       61.7 secs

     total energy              =    -993.36187551 Ry
     Harris-Foulkes estimate   =    -993.36187553 Ry
     estimated scf accuracy    <       0.00000016 Ry

     iteration # 11     ecut=    50.00 Ry     beta= 0.70
     Davidson diagonalization with overlap
     ethr =  3.13E-10,  avg # of iterations =  4.0

     total cpu time spent up to now is       67.1 secs

     total energy              =    -993.36187555 Ry
     Harris-Foulkes estimate   =    -993.36187555 Ry
     estimated scf accuracy    <       0.00000002 Ry

     iteration # 12     ecut=    50.00 Ry     beta= 0.70
     Davidson diagonalization with overlap
     ethr =  3.07E-11,  avg # of iterations =  2.7

     total cpu time spent up to now is       72.0 secs

     End of self-consistent calculation

          k = 0.0000 0.0000 0.0000 (  4289 PWs)   bands (ev):

   -50.2140 -50.2140 -24.4188 -24.4187 -24.0987 -24.0987 -24.0986 -24.0986
    -3.8016  -3.4892  -2.6673  -2.1717   4.3024   5.4216   7.5589   8.1123
     8.1123   8.1280   8.1280   9.1671   9.1671   9.2210   9.2210   9.9379
     9.9993  11.1416  13.3721  13.3721  13.4070  13.4070  13.4665

          k = 0.0000 0.0000 0.0854 (  4282 PWs)   bands (ev):

   -50.2140 -50.2140 -24.4188 -24.4187 -24.0986 -24.0986 -24.0986 -24.0986
    -3.7417  -3.5923  -2.5207  -2.2797   4.5205   5.0520   8.0734   8.1161
     8.1161   8.1239   8.1239   9.0402   9.1806   9.1806   9.2075   9.2075
    10.6505  11.0269  13.3721  13.3721  13.3826  13.3826  13.5295

          k = 0.1925 0.3333 0.0000 (  4228 PWs)   bands (ev):

   -50.1821 -50.1821 -24.4072 -24.4071 -24.3568 -24.3568 -24.1697 -24.1696
    -2.3961  -2.1537  -1.9539  -1.6729   5.0481   5.4851   5.9887   6.2866
     6.4313   6.9782   7.7462   7.8332   8.5322   9.0903   9.2656   9.4075
     9.4082   9.6861  12.5964  12.7990  12.9669  13.3370  13.6867

          k = 0.1925 0.3333 0.0854 (  4247 PWs)   bands (ev):

   -50.1821 -50.1821 -24.4072 -24.4071 -24.3569 -24.3568 -24.1697 -24.1696
    -2.3561  -2.2488  -1.8492  -1.7227   5.1357   5.3472   6.0357   6.1494
     6.6653   6.9012   7.7666   7.8100   8.6216   8.8746   9.3025   9.3733
     9.5382   9.6510  12.7488  12.8348  12.9177  13.0807  13.9686

          k = 0.5774 0.3333 0.0000 (  4269 PWs)   bands (ev):

   -50.1661 -50.1661 -24.4052 -24.4052 -24.3609 -24.3608 -24.3257 -24.3257
    -1.3845  -1.3845  -1.3813  -1.3813   4.9910   5.1784   5.7741   5.7741
     6.2669   6.5689   7.0469   7.0469   7.3021   7.3021   8.4567   8.4567
    10.5392  10.7253  12.4411  12.4411  12.9225  14.0956  14.0961

          k = 0.5774 0.3333 0.0854 (  4254 PWs)   bands (ev):

   -50.1661 -50.1661 -24.4052 -24.4052 -24.3608 -24.3608 -24.3257 -24.3257
    -1.3844  -1.3844  -1.3814  -1.3814   5.0312   5.1236   5.7993   5.7993
     6.3497   6.4994   6.8093   6.8093   7.6399   7.6399   8.3219   8.3219
    10.5770  10.6685  12.4433  12.4433  13.1631  13.6935  14.1309

     the Fermi energy is    11.2014 ev

!    total energy              =    -993.36187555 Ry
     Harris-Foulkes estimate   =    -993.36187555 Ry
     estimated scf accuracy    <          2.9E-09 Ry

     total all-electron energy =    -19390.024580 Ry

     The total energy is the sum of the following terms:

     one-electron contribution =    -157.31381941 Ry
     hartree contribution      =     106.02000482 Ry
     xc contribution           =     -77.22389430 Ry
     ewald contribution        =    -243.04343393 Ry
     one-center paw contrib.   =    -621.80077477 Ry
     smearing contrib. (-TS)   =       0.00004205 Ry

     convergence has been achieved in  12 iterations

     Forces acting on atoms (cartesian axes, Ry/au):

     atom    1 type  1   force =     0.00000000    0.00000000    0.00000000
     atom    2 type  1   force =    -0.00000000   -0.00000000   -0.00000000
     atom    3 type  2   force =    -0.00000000   -0.00000000    0.01618322
     atom    4 type  2   force =     0.00000000   -0.00000000   -0.01618322
     atom    5 type  2   force =     0.00000000    0.00000000    0.01618322
     atom    6 type  2   force =     0.00000000   -0.00000000   -0.01618322

     Total force =     0.032366     Total SCF correction =     0.000103


     Computing stress (Cartesian axis) and pressure

          total   stress  (Ry/bohr**3)                   (kbar)     P=       30.44
   0.00029207  -0.00000000   0.00000000           42.96       -0.00        0.00
  -0.00000000   0.00029207   0.00000000           -0.00       42.96        0.00
   0.00000000   0.00000000   0.00003663            0.00        0.00        5.39


     Writing output data file ./MoS2.save/

     init_run     :      4.60s CPU      4.71s WALL (       1 calls)
     electrons    :     64.32s CPU     66.01s WALL (       1 calls)
     forces       :      1.51s CPU      1.58s WALL (       1 calls)
     stress       :      3.68s CPU      3.88s WALL (       1 calls)

     Called by init_run:
     wfcinit      :      1.62s CPU      1.62s WALL (       1 calls)
     potinit      :      1.32s CPU      1.35s WALL (       1 calls)
     hinit0       :      1.36s CPU      1.37s WALL (       1 calls)

     Called by electrons:
     c_bands      :     39.42s CPU     39.50s WALL (      12 calls)
     sum_band     :      7.94s CPU      8.73s WALL (      12 calls)
     v_of_rho     :      0.99s CPU      1.00s WALL (      13 calls)
     newd         :      3.19s CPU      4.03s WALL (      13 calls)
     PAW_pot      :     14.03s CPU     14.04s WALL (      13 calls)
     mix_rho      :      0.15s CPU      0.15s WALL (      12 calls)

     Called by c_bands:
     init_us_2    :      0.50s CPU      0.50s WALL (     162 calls)
     cegterg      :     37.77s CPU     37.85s WALL (      72 calls)

     Called by sum_band:
     sum_band:bec :      0.01s CPU      0.01s WALL (      72 calls)
     addusdens    :      3.00s CPU      3.78s WALL (      12 calls)

     Called by *egterg:
     h_psi        :     23.98s CPU     24.03s WALL (     307 calls)
     s_psi        :      5.32s CPU      5.34s WALL (     307 calls)
     g_psi        :      0.16s CPU      0.16s WALL (     229 calls)
     cdiaghg      :      0.80s CPU      0.80s WALL (     301 calls)

     Called by h_psi:
     h_psi:calbec :      5.03s CPU      5.03s WALL (     307 calls)
     vloc_psi     :     13.56s CPU     13.60s WALL (     307 calls)
     add_vuspsi   :      5.32s CPU      5.32s WALL (     307 calls)

     General routines
     calbec       :      7.62s CPU      7.62s WALL (     409 calls)
     fft          :      0.42s CPU      0.43s WALL (     192 calls)
     ffts         :      0.04s CPU      0.04s WALL (      25 calls)
     fftw         :     14.70s CPU     14.75s WALL (   14368 calls)
     interpolate  :      0.06s CPU      0.06s WALL (      13 calls)


     PWSCF        :   1m15.28s CPU   1m17.51s WALL


   This run was terminated on:   2:17:22  18May2020            

=------------------------------------------------------------------------------=
   JOB DONE.
=------------------------------------------------------------------------------=
