
     Program PROJWFC v.6.5 starts on 30Aug2020 at 11: 0:16 

     This program is part of the open-source Quantum ESPRESSO suite
     for quantum simulation of materials; please cite
         "P. Giannozzi et al., J. Phys.:Condens. Matter 21 395502 (2009);
         "P. Giannozzi et al., J. Phys.:Condens. Matter 29 465901 (2017);
          URL http://www.quantum-espresso.org", 
     in publications or presentations arising from this work. More details at
     http://www.quantum-espresso.org/quote

     Parallel version (MPI), running on    16 processors

     MPI processes distributed on     1 nodes
     R & G space division:  proc/nbgrp/npool/nimage =      16

     Reading xml data from directory:

     ./LiF.save/

     IMPORTANT: XC functional enforced from input :
     Exchange-correlation= PBE
                           (   1   4   3   4   0   0   0)
     Any further DFT definition will be discarded
     Please, verify this is what you really want

               file F.pbe-n-kjpaw_psl.1.0.0.UPF: wavefunction(s)  2S 2P renormalized

     Parallelization info
     --------------------
     sticks:   dense  smooth     PW     G-vecs:    dense   smooth      PW
     Min          77      51     15                 1784      973     160
     Max          78      52     16                 1787      977     162
     Sum        1237     823    253                28571    15593    2565

     Generating pointlists ...
     new r_m :   0.2917 (alat units)  1.5915 (a.u.) for type    1
     new r_m :   0.2917 (alat units)  1.5915 (a.u.) for type    2

     Gaussian broadening (read from input): ngauss,degauss=   0    0.036748


     Calling projwave .... 

  Problem Sizes 
  natomwfc =            9
  nbnd     =            9
  nkstot   =          364
  npwx     =          127
  nkb      =           16


     Atomic states used for projection
     (read from pseudopotential files):

     state #   1: atom   1 (Li ), wfc  1 (l=0 m= 1)
     state #   2: atom   1 (Li ), wfc  2 (l=0 m= 1)
     state #   3: atom   1 (Li ), wfc  3 (l=1 m= 1)
     state #   4: atom   1 (Li ), wfc  3 (l=1 m= 2)
     state #   5: atom   1 (Li ), wfc  3 (l=1 m= 3)
     state #   6: atom   2 (F  ), wfc  1 (l=0 m= 1)
     state #   7: atom   2 (F  ), wfc  2 (l=1 m= 1)
     state #   8: atom   2 (F  ), wfc  2 (l=1 m= 2)
     state #   9: atom   2 (F  ), wfc  2 (l=1 m= 3)

 k =   0.0000000000  0.0000000000  0.0000000000
==== e(   1) =   -40.45651 eV ==== 
     psi = 0.918*[#   1]+0.082*[#   2]
    |psi|^2 = 1.000
==== e(   2) =   -19.33506 eV ==== 
     psi = 0.697*[#   6]+0.280*[#   2]+0.023*[#   1]
    |psi|^2 = 1.000
==== e(   3) =     0.52238 eV ==== 
     psi = 0.496*[#   7]+0.302*[#   8]+0.199*[#   9]
    |psi|^2 = 0.998
==== e(   4) =     0.52238 eV ==== 
     psi = 0.633*[#   8]+0.285*[#   9]+0.080*[#   7]
    |psi|^2 = 0.998
==== e(   5) =     0.52238 eV ==== 
     psi = 0.513*[#   9]+0.422*[#   7]+0.062*[#   8]
    |psi|^2 = 0.998
==== e(   6) =     9.23842 eV ==== 
     psi = 0.636*[#   2]+0.301*[#   6]+0.059*[#   1]
    |psi|^2 = 0.996
==== e(   7) =    23.93225 eV ==== 
     psi = 0.395*[#   4]+0.328*[#   3]
    |psi|^2 = 0.725
==== e(   8) =    23.93225 eV ==== 
     psi = 0.647*[#   5]+0.048*[#   3]+0.029*[#   4]+0.001*[#   9]
    |psi|^2 = 0.725
==== e(   9) =    23.93225 eV ==== 
     psi = 0.347*[#   3]+0.300*[#   4]+0.076*[#   5]
    |psi|^2 = 0.725

 k =   0.0096225045 -0.0136082763  0.0166666667
==== e(   1) =   -40.45633 eV ==== 
     psi = 0.917*[#   1]+0.079*[#   2]+0.002*[#   3]+0.001*[#   5]
    |psi|^2 = 1.000
==== e(   2) =   -19.33369 eV ==== 
     psi = 0.697*[#   6]+0.277*[#   2]+0.023*[#   1]+0.002*[#   3]+0.001*[#   5]
          
    |psi|^2 = 1.000
==== e(   3) =     0.51518 eV ==== 
     psi = 0.498*[#   7]+0.332*[#   9]+0.166*[#   8]
    |psi|^2 = 0.998
==== e(   4) =     0.51972 eV ==== 
     psi = 0.659*[#   9]+0.298*[#   7]+0.041*[#   8]
    |psi|^2 = 0.998
==== e(   5) =     0.51972 eV ==== 
     psi = 0.790*[#   8]+0.201*[#   7]+0.006*[#   9]
    |psi|^2 = 0.998
==== e(   6) =     9.25010 eV ==== 
     psi = 0.628*[#   2]+0.301*[#   6]+0.059*[#   1]+0.004*[#   3]+0.002*[#   5]
          +0.001*[#   4]
    |psi|^2 = 0.996
==== e(   7) =    23.73449 eV ==== 
     psi = 0.336*[#   5]+0.238*[#   4]+0.037*[#   3]
    |psi|^2 = 0.611
==== e(   8) =    23.73449 eV ==== 
     psi = 0.271*[#   4]+0.268*[#   3]+0.071*[#   5]
    |psi|^2 = 0.611
==== e(   9) =    23.88675 eV ==== 
     psi = 0.352*[#   3]+0.234*[#   5]+0.117*[#   4]+0.010*[#   2]
    |psi|^2 = 0.715

 k =   0.0192450090 -0.0272165527  0.0333333333
==== e(   1) =   -40.45583 eV ==== 
     psi = 0.913*[#   1]+0.072*[#   2]+0.008*[#   3]+0.005*[#   5]+0.003*[#   4]
          
    |psi|^2 = 1.000
==== e(   2) =   -19.32959 eV ==== 
     psi = 0.697*[#   6]+0.267*[#   2]+0.023*[#   1]+0.007*[#   3]+0.004*[#   5]
          +0.002*[#   4]
    |psi|^2 = 1.000
==== e(   3) =     0.49363 eV ==== 
     psi = 0.496*[#   7]+0.331*[#   9]+0.165*[#   8]+0.003*[#   2]+0.001*[#   6]
          
    |psi|^2 = 0.998
==== e(   4) =     0.51177 eV ==== 
     psi = 0.658*[#   9]+0.298*[#   7]+0.041*[#   8]
    |psi|^2 = 0.998
==== e(   5) =     0.51177 eV ==== 
     psi = 0.790*[#   8]+0.201*[#   7]+0.006*[#   9]
    |psi|^2 = 0.998
==== e(   6) =     9.28507 eV ==== 
     psi = 0.604*[#   2]+0.300*[#   6]+0.060*[#   1]+0.014*[#   3]+0.009*[#   5]
          +0.005*[#   4]+0.002*[#   7]+0.001*[#   9]
    |psi|^2 = 0.996
==== e(   7) =    23.40979 eV ==== 
     psi = 0.293*[#   5]+0.265*[#   4]+0.021*[#   3]
    |psi|^2 = 0.580
==== e(   8) =    23.40979 eV ==== 
     psi = 0.268*[#   3]+0.218*[#   4]+0.093*[#   5]
    |psi|^2 = 0.580
==== e(   9) =    23.75508 eV ==== 
     psi = 0.323*[#   3]+0.215*[#   5]+0.108*[#   4]+0.037*[#   2]+0.002*[#   1]
          
    |psi|^2 = 0.687

 k =   0.0288675135 -0.0408248290  0.0500000000
==== e(   1) =   -40.45497 eV ==== 
     psi = 0.908*[#   1]+0.061*[#   2]+0.016*[#   3]+0.010*[#   5]+0.005*[#   4]
          
    |psi|^2 = 1.000
==== e(   2) =   -19.32277 eV ==== 
     psi = 0.697*[#   6]+0.252*[#   2]+0.023*[#   1]+0.014*[#   3]+0.009*[#   5]
          +0.005*[#   4]
    |psi|^2 = 1.000
==== e(   3) =     0.45796 eV ==== 
     psi = 0.494*[#   7]+0.329*[#   9]+0.165*[#   8]+0.007*[#   2]+0.003*[#   6]
          
    |psi|^2 = 0.998
==== e(   4) =     0.49863 eV ==== 
     psi = 0.658*[#   9]+0.298*[#   7]+0.041*[#   8]
    |psi|^2 = 0.998
==== e(   5) =     0.49863 eV ==== 
     psi = 0.790*[#   8]+0.201*[#   7]+0.006*[#   9]
    |psi|^2 = 0.998
==== e(   6) =     9.34307 eV ==== 
     psi = 0.569*[#   2]+0.298*[#   6]+0.060*[#   1]+0.029*[#   3]+0.020*[#   5]
          +0.010*[#   4]+0.005*[#   7]+0.003*[#   9]+0.002*[#   8]
    |psi|^2 = 0.996
==== e(   7) =    23.08393 eV ==== 
     psi = 0.292*[#   5]+0.288*[#   4]+0.017*[#   3]
    |psi|^2 = 0.599
==== e(   8) =    23.08393 eV ==== 
     psi = 0.282*[#   3]+0.210*[#   4]+0.106*[#   5]
    |psi|^2 = 0.599
==== e(   9) =    23.54995 eV ==== 
     psi = 0.284*[#   3]+0.189*[#   5]+0.095*[#   4]+0.075*[#   2]+0.005*[#   1]
          
    |psi|^2 = 0.648

 k =   0.0384900179 -0.0544331054  0.0666666667
==== e(   1) =   -40.45374 eV ==== 
     psi = 0.901*[#   1]+0.048*[#   2]+0.025*[#   3]+0.017*[#   5]+0.008*[#   4]
          
    |psi|^2 = 1.000
==== e(   2) =   -19.31326 eV ==== 
     psi = 0.698*[#   6]+0.233*[#   2]+0.023*[#   3]+0.023*[#   1]+0.015*[#   5]
          +0.008*[#   4]
    |psi|^2 = 1.000
==== e(   3) =     0.40847 eV ==== 
     psi = 0.490*[#   7]+0.327*[#   9]+0.163*[#   8]+0.012*[#   2]+0.005*[#   6]
          +0.002*[#   1]
    |psi|^2 = 0.998
==== e(   4) =     0.48045 eV ==== 
     psi = 0.658*[#   9]+0.297*[#   7]+0.041*[#   8]
    |psi|^2 = 0.998
==== e(   5) =     0.48045 eV ==== 
     psi = 0.789*[#   8]+0.201*[#   7]+0.006*[#   9]+0.001*[#   4]
    |psi|^2 = 0.998
==== e(   6) =     9.42372 eV ==== 
     psi = 0.524*[#   2]+0.296*[#   6]+0.061*[#   1]+0.049*[#   3]+0.033*[#   5]
          +0.016*[#   4]+0.008*[#   7]+0.006*[#   9]+0.003*[#   8]
    |psi|^2 = 0.995
==== e(   7) =    22.77435 eV ==== 
     psi = 0.308*[#   5]+0.306*[#   4]+0.018*[#   3]
    |psi|^2 = 0.634
==== e(   8) =    22.77435 eV ==== 
     psi = 0.298*[#   3]+0.220*[#   4]+0.113*[#   5]
    |psi|^2 = 0.634
==== e(   9) =    23.28621 eV ==== 

    |psi|^2 = 0.000

 k =   0.0481125224 -0.0680413817  0.0833333333
==== e(   1) =   -40.45221 eV ==== 
     psi = 0.895*[#   1]+0.036*[#   2]+0.035*[#   3]+0.023*[#   5]+0.012*[#   4]
          
    |psi|^2 = 1.000
==== e(   2) =   -19.30108 eV ==== 
     psi = 0.698*[#   6]+0.213*[#   2]+0.033*[#   3]+0.023*[#   1]+0.022*[#   5]
          +0.011*[#   4]
    |psi|^2 = 1.000
==== e(   3) =     0.34560 eV ==== 
     psi = 0.485*[#   7]+0.324*[#   9]+0.162*[#   8]+0.017*[#   2]+0.007*[#   6]
          +0.002*[#   1]
    |psi|^2 = 0.998
==== e(   4) =     0.45745 eV ==== 
     psi = 0.658*[#   9]+0.297*[#   7]+0.041*[#   8]+0.001*[#   5]
    |psi|^2 = 0.998
==== e(   5) =     0.45746 eV ==== 
     psi = 0.789*[#   8]+0.201*[#   7]+0.006*[#   9]+0.002*[#   4]
    |psi|^2 = 0.998
==== e(   6) =     9.52640 eV ==== 
     psi = 0.474*[#   2]+0.292*[#   6]+0.070*[#   3]+0.062*[#   1]+0.047*[#   5]
          +0.023*[#   4]+0.013*[#   7]+0.009*[#   9]+0.004*[#   8]
    |psi|^2 = 0.995
==== e(   7) =    22.48495 eV ==== 
     psi = 0.330*[#   5]+0.317*[#   4]+0.021*[#   3]+0.001*[#   8]+0.001*[#   9]
          
    |psi|^2 = 0.671
==== e(   8) =    22.48495 eV ==== 
     psi = 0.313*[#   3]+0.240*[#   4]+0.115*[#   5]+0.001*[#   7]
    |psi|^2 = 0.671
==== e(   9) =    22.84614 eV ==== 

    |psi|^2 = 0.000

 k =   0.0577350269 -0.0816496581  0.1000000000
==== e(   1) =   -40.45037 eV ==== 
     psi = 0.888*[#   1]+0.043*[#   3]+0.029*[#   5]+0.025*[#   2]+0.014*[#   4]
          
    |psi|^2 = 1.000
==== e(   2) =   -19.28629 eV ==== 
     psi = 0.700*[#   6]+0.192*[#   2]+0.043*[#   3]+0.029*[#   5]+0.022*[#   1]
          +0.014*[#   4]
    |psi|^2 = 1.000
==== e(   3) =     0.26992 eV ==== 
     psi = 0.480*[#   7]+0.320*[#   9]+0.160*[#   8]+0.022*[#   2]+0.010*[#   6]
          +0.003*[#   1]+0.001*[#   3]
    |psi|^2 = 0.998
==== e(   4) =     0.42992 eV ==== 
     psi = 0.657*[#   9]+0.297*[#   7]+0.041*[#   8]+0.002*[#   5]
    |psi|^2 = 0.998
==== e(   5) =     0.42992 eV ==== 
     psi = 0.788*[#   8]+0.201*[#   7]+0.006*[#   9]+0.003*[#   4]
    |psi|^2 = 0.998
==== e(   6) =     9.65043 eV ==== 
     psi = 0.423*[#   2]+0.288*[#   6]+0.093*[#   3]+0.062*[#   1]+0.062*[#   5]
          +0.031*[#   4]+0.018*[#   7]+0.012*[#   9]+0.006*[#   8]
    |psi|^2 = 0.995
==== e(   7) =    22.21679 eV ==== 
     psi = 0.355*[#   5]+0.321*[#   4]+0.026*[#   3]+0.002*[#   9]+0.002*[#   8]
          
    |psi|^2 = 0.706
==== e(   8) =    22.21679 eV ==== 
     psi = 0.325*[#   3]+0.264*[#   4]+0.113*[#   5]+0.002*[#   7]+0.001*[#   8]
          
    |psi|^2 = 0.706
==== e(   9) =    22.40532 eV ==== 

    |psi|^2 = 0.000

 k =   0.0673575314 -0.0952579344  0.1166666667
==== e(   1) =   -40.44825 eV ==== 
     psi = 0.883*[#   1]+0.051*[#   3]+0.034*[#   5]+0.017*[#   4]+0.016*[#   2]
          
    |psi|^2 = 1.000
==== e(   2) =   -19.26896 eV ==== 
     psi = 0.702*[#   6]+0.171*[#   2]+0.052*[#   3]+0.035*[#   5]+0.022*[#   1]
          +0.017*[#   4]
    |psi|^2 = 1.000
==== e(   3) =     0.18209 eV ==== 
     psi = 0.475*[#   7]+0.316*[#   9]+0.158*[#   8]+0.027*[#   2]+0.013*[#   6]
          +0.004*[#   1]+0.002*[#   3]+0.002*[#   5]
    |psi|^2 = 0.998
==== e(   4) =     0.39818 eV ==== 
     psi = 0.656*[#   9]+0.296*[#   7]+0.041*[#   8]+0.003*[#   5]+0.001*[#   3]
          
    |psi|^2 = 0.998
==== e(   5) =     0.39818 eV ==== 
     psi = 0.787*[#   8]+0.201*[#   7]+0.006*[#   9]+0.004*[#   4]
    |psi|^2 = 0.998
==== e(   6) =     9.79497 eV ==== 
     psi = 0.372*[#   2]+0.282*[#   6]+0.115*[#   3]+0.077*[#   5]+0.062*[#   1]
          +0.038*[#   4]+0.024*[#   7]+0.016*[#   9]+0.008*[#   8]
    |psi|^2 = 0.994
==== e(   7) =    21.96999 eV ==== 
     psi = 0.381*[#   5]+0.319*[#   4]+0.032*[#   3]+0.003*[#   9]+0.002*[#   8]
          
    |psi|^2 = 0.736
==== e(   8) =    21.96999 eV ==== 
     psi = 0.334*[#   3]+0.290*[#   4]+0.107*[#   5]+0.002*[#   7]+0.002*[#   8]
          
    |psi|^2 = 0.736
==== e(   9) =    21.97146 eV ==== 

    |psi|^2 = 0.000

 k =   0.0769800359 -0.1088662108  0.1333333333
==== e(   1) =   -40.44589 eV ==== 
     psi = 0.878*[#   1]+0.056*[#   3]+0.037*[#   5]+0.019*[#   4]+0.009*[#   2]
          
    |psi|^2 = 1.000
==== e(   2) =   -19.24915 eV ==== 
     psi = 0.706*[#   6]+0.152*[#   2]+0.060*[#   3]+0.040*[#   5]+0.021*[#   1]
          +0.020*[#   4]
    |psi|^2 = 1.000
==== e(   3) =     0.08292 eV ==== 
     psi = 0.469*[#   7]+0.312*[#   9]+0.156*[#   8]+0.031*[#   2]+0.016*[#   6]
          +0.005*[#   1]+0.004*[#   3]+0.003*[#   5]+0.001*[#   4]
    |psi|^2 = 0.998
==== e(   4) =     0.36259 eV ==== 
     psi = 0.655*[#   9]+0.295*[#   7]+0.041*[#   8]+0.004*[#   5]+0.002*[#   3]
          
    |psi|^2 = 0.998
==== e(   5) =     0.36259 eV ==== 
     psi = 0.785*[#   8]+0.200*[#   7]+0.006*[#   9]+0.005*[#   4]+0.001*[#   3]
          
    |psi|^2 = 0.998
==== e(   6) =     9.95905 eV ==== 
     psi = 0.324*[#   2]+0.276*[#   6]+0.136*[#   3]+0.091*[#   5]+0.062*[#   1]
          +0.045*[#   4]+0.029*[#   7]+0.020*[#   9]+0.010*[#   8]
    |psi|^2 = 0.994
==== e(   7) =    21.54895 eV ==== 

    |psi|^2 = 0.000
==== e(   8) =    21.74428 eV ==== 
     psi = 0.404*[#   5]+0.311*[#   4]+0.039*[#   3]+0.004*[#   9]+0.003*[#   8]
          
    |psi|^2 = 0.761
==== e(   9) =    21.74428 eV ==== 
     psi = 0.338*[#   3]+0.317*[#   4]+0.099*[#   5]+0.003*[#   7]+0.003*[#   8]
          
    |psi|^2 = 0.761

 k =   0.0866025404 -0.1224744871  0.1500000000
==== e(   1) =   -40.44328 eV ==== 
     psi = 0.875*[#   1]+0.060*[#   3]+0.040*[#   5]+0.020*[#   4]+0.004*[#   2]
          
    |psi|^2 = 1.000
==== e(   2) =   -19.22699 eV ==== 
     psi = 0.711*[#   6]+0.135*[#   2]+0.067*[#   3]+0.045*[#   5]+0.022*[#   4]
          +0.020*[#   1]
    |psi|^2 = 1.000
==== e(   3) =    -0.02669 eV ==== 
     psi = 0.462*[#   7]+0.308*[#   9]+0.154*[#   8]+0.034*[#   2]+0.019*[#   6]
          +0.007*[#   3]+0.007*[#   1]+0.005*[#   5]+0.002*[#   4]
    |psi|^2 = 0.998
==== e(   4) =     0.32359 eV ==== 
     psi = 0.654*[#   9]+0.295*[#   7]+0.041*[#   8]+0.006*[#   5]+0.003*[#   3]
          
    |psi|^2 = 0.998
==== e(   5) =     0.32359 eV ==== 
     psi = 0.783*[#   8]+0.200*[#   7]+0.007*[#   4]+0.006*[#   9]+0.002*[#   3]
          
    |psi|^2 = 0.998
==== e(   6) =    10.14162 eV ==== 
     psi = 0.280*[#   2]+0.268*[#   6]+0.156*[#   3]+0.104*[#   5]+0.062*[#   1]
          +0.052*[#   4]+0.036*[#   7]+0.024*[#   9]+0.012*[#   8]
    |psi|^2 = 0.993
==== e(   7) =    21.14043 eV ==== 

    |psi|^2 = 0.000
==== e(   8) =    21.53915 eV ==== 
     psi = 0.426*[#   5]+0.300*[#   4]+0.047*[#   3]+0.005*[#   9]+0.003*[#   8]
          
    |psi|^2 = 0.781
==== e(   9) =    21.53915 eV ==== 
     psi = 0.344*[#   4]+0.339*[#   3]+0.090*[#   5]+0.004*[#   7]+0.004*[#   8]
          +0.001*[#   9]
    |psi|^2 = 0.781

 k =   0.0962250449 -0.1360827635  0.1666666667
==== e(   1) =   -40.44053 eV ==== 
     psi = 0.874*[#   1]+0.062*[#   3]+0.041*[#   5]+0.021*[#   4]+0.002*[#   2]
          
    |psi|^2 = 1.000
==== e(   2) =   -19.20259 eV ==== 
     psi = 0.717*[#   6]+0.120*[#   2]+0.072*[#   3]+0.048*[#   5]+0.024*[#   4]
          +0.019*[#   1]
    |psi|^2 = 1.000
==== e(   3) =    -0.14572 eV ==== 
     psi = 0.456*[#   7]+0.304*[#   9]+0.152*[#   8]+0.035*[#   2]+0.021*[#   6]
          +0.011*[#   3]+0.008*[#   1]+0.007*[#   5]+0.004*[#   4]
    |psi|^2 = 0.998
==== e(   4) =     0.28161 eV ==== 
     psi = 0.652*[#   9]+0.294*[#   7]+0.041*[#   8]+0.007*[#   5]+0.003*[#   3]
          
    |psi|^2 = 0.998
==== e(   5) =     0.28161 eV ==== 
     psi = 0.781*[#   8]+0.200*[#   7]+0.009*[#   4]+0.006*[#   9]+0.002*[#   3]
          
    |psi|^2 = 0.998
==== e(   6) =    10.34148 eV ==== 
     psi = 0.259*[#   6]+0.241*[#   2]+0.174*[#   3]+0.116*[#   5]+0.061*[#   1]
          +0.058*[#   4]+0.042*[#   7]+0.028*[#   9]+0.014*[#   8]
    |psi|^2 = 0.993
==== e(   7) =    20.74759 eV ==== 

    |psi|^2 = 0.000
==== e(   8) =    21.30144 eV ==== 
     psi = 0.382*[#   2]+0.101*[#   3]+0.068*[#   5]+0.034*[#   4]+0.020*[#   1]
          
    |psi|^2 = 0.607
==== e(   9) =    21.35394 eV ==== 
     psi = 0.571*[#   4]+0.129*[#   5]+0.086*[#   3]+0.008*[#   8]+0.002*[#   9]
          +0.001*[#   7]
    |psi|^2 = 0.798

 k =   0.1058475494 -0.1496910398  0.1833333333
==== e(   1) =   -40.43758 eV ==== 
     psi = 0.874*[#   1]+0.062*[#   3]+0.042*[#   5]+0.021*[#   4]
    |psi|^2 = 1.000
==== e(   2) =   -19.17612 eV ==== 
     psi = 0.724*[#   6]+0.106*[#   2]+0.076*[#   3]+0.051*[#   5]+0.025*[#   4]
          +0.018*[#   1]
    |psi|^2 = 1.000
==== e(   3) =    -0.27303 eV ==== 
     psi = 0.450*[#   7]+0.300*[#   9]+0.150*[#   8]+0.034*[#   2]+0.024*[#   6]
          +0.015*[#   3]+0.010*[#   5]+0.009*[#   1]+0.005*[#   4]
    |psi|^2 = 0.998
==== e(   4) =     0.23717 eV ==== 
     psi = 0.651*[#   9]+0.293*[#   7]+0.041*[#   8]+0.009*[#   5]+0.004*[#   3]
          
    |psi|^2 = 0.998
==== e(   5) =     0.23717 eV ==== 
     psi = 0.779*[#   8]+0.200*[#   7]+0.011*[#   4]+0.006*[#   9]+0.003*[#   3]
          
    |psi|^2 = 0.998
==== e(   6) =    10.55741 eV ==== 
     psi = 0.248*[#   6]+0.206*[#   2]+0.191*[#   3]+0.127*[#   5]+0.064*[#   4]
          +0.060*[#   1]+0.048*[#   7]+0.032*[#   9]+0.016*[#   8]
    |psi|^2 = 0.993
==== e(   7) =    20.37155 eV ==== 

    |psi|^2 = 0.000
==== e(   8) =    20.98043 eV ==== 
     psi = 0.443*[#   2]+0.094*[#   3]+0.062*[#   5]+0.031*[#   4]+0.023*[#   1]
          
    |psi|^2 = 0.655
==== e(   9) =    21.18788 eV ==== 
     psi = 0.521*[#   5]+0.256*[#   3]+0.022*[#   4]+0.009*[#   9]+0.004*[#   7]
          
    |psi|^2 = 0.812

 k =   0.1154700538 -0.1632993162  0.2000000000
==== e(   1) =   -40.43449 eV ==== 
     psi = 0.876*[#   1]+0.062*[#   3]+0.041*[#   5]+0.021*[#   4]
    |psi|^2 = 1.000
==== e(   2) =   -19.14775 eV ==== 
     psi = 0.733*[#   6]+0.094*[#   2]+0.078*[#   3]+0.052*[#   5]+0.026*[#   4]
          +0.017*[#   1]
    |psi|^2 = 1.000
==== e(   3) =    -0.40740 eV ==== 
     psi = 0.444*[#   7]+0.296*[#   9]+0.148*[#   8]+0.032*[#   2]+0.026*[#   6]
          +0.021*[#   3]+0.014*[#   5]+0.010*[#   1]+0.007*[#   4]
    |psi|^2 = 0.997
==== e(   4) =     0.19076 eV ==== 
     psi = 0.649*[#   9]+0.292*[#   7]+0.042*[#   8]+0.011*[#   5]+0.005*[#   3]
          
    |psi|^2 = 0.998
==== e(   5) =     0.19076 eV ==== 
     psi = 0.777*[#   8]+0.199*[#   7]+0.013*[#   4]+0.006*[#   9]+0.003*[#   3]
          
    |psi|^2 = 0.998
==== e(   6) =    10.78805 eV ==== 
     psi = 0.237*[#   6]+0.206*[#   3]+0.177*[#   2]+0.138*[#   5]+0.069*[#   4]
          +0.058*[#   1]+0.054*[#   7]+0.036*[#   9]+0.018*[#   8]
    |psi|^2 = 0.993
==== e(   7) =    20.01306 eV ==== 

    |psi|^2 = 0.000
==== e(   8) =    20.67342 eV ==== 
     psi = 0.505*[#   2]+0.086*[#   3]+0.058*[#   5]+0.029*[#   4]+0.025*[#   1]
          +0.001*[#   6]
    |psi|^2 = 0.705
==== e(   9) =    21.04010 eV ==== 
     psi = 0.406*[#   4]+0.382*[#   5]+0.020*[#   3]+0.008*[#   8]+0.008*[#   9]
          
    |psi|^2 = 0.825

 k =   0.1250925583 -0.1769075925  0.2166666667
==== e(   1) =   -40.43131 eV ==== 
     psi = 0.879*[#   1]+0.060*[#   3]+0.040*[#   5]+0.020*[#   4]
    |psi|^2 = 1.000
==== e(   2) =   -19.11771 eV ==== 
     psi = 0.743*[#   6]+0.083*[#   2]+0.079*[#   3]+0.053*[#   5]+0.026*[#   4]
          +0.015*[#   1]
    |psi|^2 = 1.000
==== e(   3) =    -0.54748 eV ==== 
     psi = 0.438*[#   7]+0.292*[#   9]+0.146*[#   8]+0.029*[#   2]+0.028*[#   6]
          +0.026*[#   3]+0.018*[#   5]+0.011*[#   1]+0.009*[#   4]
    |psi|^2 = 0.997
==== e(   4) =     0.14292 eV ==== 
     psi = 0.647*[#   9]+0.291*[#   7]+0.042*[#   8]+0.013*[#   5]+0.006*[#   3]
          
    |psi|^2 = 0.998
==== e(   5) =     0.14292 eV ==== 
     psi = 0.774*[#   8]+0.199*[#   7]+0.015*[#   4]+0.006*[#   9]+0.004*[#   3]
          
    |psi|^2 = 0.998
==== e(   6) =    11.03193 eV ==== 
     psi = 0.225*[#   6]+0.220*[#   3]+0.152*[#   2]+0.147*[#   5]+0.073*[#   4]
          +0.060*[#   7]+0.055*[#   1]+0.040*[#   9]+0.020*[#   8]
    |psi|^2 = 0.993
==== e(   7) =    19.67266 eV ==== 

    |psi|^2 = 0.000
==== e(   8) =    20.38177 eV ==== 
     psi = 0.564*[#   2]+0.079*[#   3]+0.053*[#   5]+0.027*[#   1]+0.026*[#   4]
          +0.002*[#   6]
    |psi|^2 = 0.752
==== e(   9) =    20.90965 eV ==== 
     psi = 0.516*[#   5]+0.296*[#   3]+0.012*[#   9]+0.007*[#   7]+0.006*[#   4]
          
    |psi|^2 = 0.837

 k =   0.1347150628 -0.1905158689  0.2333333333
==== e(   1) =   -40.42813 eV ==== 
     psi = 0.884*[#   1]+0.057*[#   3]+0.038*[#   5]+0.019*[#   4]+0.002*[#   2]
          
    |psi|^2 = 1.000
==== e(   2) =   -19.08626 eV ==== 
     psi = 0.755*[#   6]+0.079*[#   3]+0.074*[#   2]+0.053*[#   5]+0.026*[#   4]
          +0.014*[#   1]
    |psi|^2 = 1.000
==== e(   3) =    -0.69185 eV ==== 
     psi = 0.433*[#   7]+0.288*[#   9]+0.144*[#   8]+0.033*[#   3]+0.029*[#   6]
          +0.026*[#   2]+0.022*[#   5]+0.012*[#   1]+0.011*[#   4]
    |psi|^2 = 0.997
==== e(   4) =     0.09417 eV ==== 
     psi = 0.645*[#   9]+0.289*[#   7]+0.042*[#   8]+0.015*[#   5]+0.007*[#   3]
          
    |psi|^2 = 0.998
==== e(   5) =     0.09417 eV ==== 
     psi = 0.772*[#   8]+0.199*[#   7]+0.018*[#   4]+0.006*[#   9]+0.005*[#   3]
          
    |psi|^2 = 0.998
==== e(   6) =    11.28748 eV ==== 
     psi = 0.233*[#   3]+0.212*[#   6]+0.155*[#   5]+0.131*[#   2]+0.078*[#   4]
          +0.066*[#   7]+0.052*[#   1]+0.044*[#   9]+0.022*[#   8]
    |psi|^2 = 0.993
==== e(   7) =    19.35075 eV ==== 

    |psi|^2 = 0.000
==== e(   8) =    20.10604 eV ==== 
     psi = 0.618*[#   2]+0.072*[#   3]+0.048*[#   5]+0.029*[#   1]+0.024*[#   4]
          +0.002*[#   6]
    |psi|^2 = 0.794
==== e(   9) =    20.79550 eV ==== 
     psi = 0.664*[#   4]+0.120*[#   3]+0.044*[#   5]+0.018*[#   8]+0.003*[#   7]
          +0.001*[#   9]
    |psi|^2 = 0.850

 k =   0.1443375673 -0.2041241452  0.2500000000
==== e(   1) =   -40.42489 eV ==== 
     psi = 0.889*[#   1]+0.054*[#   3]+0.036*[#   5]+0.018*[#   4]+0.003*[#   2]
          
    |psi|^2 = 1.000
==== e(   2) =   -19.05369 eV ==== 
     psi = 0.768*[#   6]+0.077*[#   3]+0.066*[#   2]+0.051*[#   5]+0.026*[#   4]
          +0.012*[#   1]
    |psi|^2 = 1.000
==== e(   3) =    -0.83898 eV ==== 
     psi = 0.428*[#   7]+0.285*[#   9]+0.143*[#   8]+0.039*[#   3]+0.029*[#   6]
          +0.026*[#   5]+0.022*[#   2]+0.013*[#   4]+0.013*[#   1]
    |psi|^2 = 0.998
==== e(   4) =     0.04508 eV ==== 
     psi = 0.643*[#   9]+0.288*[#   7]+0.042*[#   8]+0.017*[#   5]+0.007*[#   3]
          +0.001*[#   4]
    |psi|^2 = 0.998
==== e(   5) =     0.04508 eV ==== 
     psi = 0.769*[#   8]+0.198*[#   7]+0.020*[#   4]+0.006*[#   9]+0.005*[#   3]
          
    |psi|^2 = 0.998
==== e(   6) =    11.55310 eV ==== 
     psi = 0.245*[#   3]+0.198*[#   6]+0.163*[#   5]+0.115*[#   2]+0.082*[#   4]
          +0.071*[#   7]+0.048*[#   1]+0.047*[#   9]+0.024*[#   8]
    |psi|^2 = 0.993
==== e(   7) =    19.04762 eV ==== 

    |psi|^2 = 0.000
==== e(   8) =    19.84628 eV ==== 
     psi = 0.664*[#   2]+0.065*[#   3]+0.044*[#   5]+0.030*[#   1]+0.022*[#   4]
          +0.003*[#   6]
    |psi|^2 = 0.828
==== e(   9) =    20.69658 eV ==== 
     psi = 0.549*[#   4]+0.247*[#   3]+0.042*[#   5]+0.016*[#   8]+0.007*[#   7]
          +0.001*[#   9]
    |psi|^2 = 0.862

 k =   0.1539600718 -0.2177324216  0.2666666667
==== e(   1) =   -40.42164 eV ==== 
     psi = 0.896*[#   1]+0.049*[#   3]+0.033*[#   5]+0.016*[#   4]+0.005*[#   2]
          
    |psi|^2 = 1.000
==== e(   2) =   -19.02031 eV ==== 
     psi = 0.782*[#   6]+0.074*[#   3]+0.058*[#   2]+0.050*[#   5]+0.025*[#   4]
          +0.010*[#   1]
    |psi|^2 = 1.000
==== e(   3) =    -0.98728 eV ==== 
     psi = 0.423*[#   7]+0.282*[#   9]+0.141*[#   8]+0.046*[#   3]+0.030*[#   5]
          +0.029*[#   6]+0.019*[#   2]+0.015*[#   4]+0.013*[#   1]
    |psi|^2 = 0.998
==== e(   4) =    -0.00382 eV ==== 
     psi = 0.641*[#   9]+0.287*[#   7]+0.042*[#   8]+0.019*[#   5]+0.008*[#   3]
          +0.001*[#   4]
    |psi|^2 = 0.999
==== e(   5) =    -0.00382 eV ==== 
     psi = 0.767*[#   8]+0.198*[#   7]+0.022*[#   4]+0.006*[#   3]+0.006*[#   9]
          
    |psi|^2 = 0.999
==== e(   6) =    11.82705 eV ==== 
     psi = 0.256*[#   3]+0.183*[#   6]+0.171*[#   5]+0.101*[#   2]+0.085*[#   4]
          +0.076*[#   7]+0.051*[#   9]+0.044*[#   1]+0.025*[#   8]
    |psi|^2 = 0.993
==== e(   7) =    18.76348 eV ==== 

    |psi|^2 = 0.000
==== e(   8) =    19.60195 eV ==== 
     psi = 0.704*[#   2]+0.059*[#   3]+0.039*[#   5]+0.031*[#   1]+0.020*[#   4]
          +0.003*[#   6]
    |psi|^2 = 0.856
==== e(   9) =    20.61177 eV ==== 
     psi = 0.678*[#   4]+0.131*[#   5]+0.039*[#   3]+0.022*[#   8]+0.004*[#   9]
          +0.001*[#   7]
    |psi|^2 = 0.875

 k =   0.1635825763 -0.2313406979  0.2833333333
==== e(   1) =   -40.41850 eV ==== 
     psi = 0.903*[#   1]+0.045*[#   3]+0.030*[#   5]+0.015*[#   4]+0.007*[#   2]
          
    |psi|^2 = 1.000
==== e(   2) =   -18.98648 eV ==== 
     psi = 0.799*[#   6]+0.070*[#   3]+0.052*[#   2]+0.047*[#   5]+0.023*[#   4]
          +0.008*[#   1]
    |psi|^2 = 1.000
==== e(   3) =    -1.13515 eV ==== 
     psi = 0.418*[#   7]+0.279*[#   9]+0.139*[#   8]+0.052*[#   3]+0.035*[#   5]
          +0.028*[#   6]+0.017*[#   4]+0.016*[#   2]+0.013*[#   1]
    |psi|^2 = 0.998
==== e(   4) =    -0.05200 eV ==== 
     psi = 0.640*[#   9]+0.286*[#   7]+0.042*[#   8]+0.020*[#   5]+0.009*[#   3]
          +0.001*[#   4]
    |psi|^2 = 0.999
==== e(   5) =    -0.05200 eV ==== 
     psi = 0.765*[#   8]+0.198*[#   7]+0.024*[#   4]+0.006*[#   3]+0.005*[#   9]
          
    |psi|^2 = 0.999
==== e(   6) =    12.10739 eV ==== 
     psi = 0.267*[#   3]+0.178*[#   5]+0.167*[#   6]+0.091*[#   2]+0.089*[#   4]
          +0.081*[#   7]+0.054*[#   9]+0.039*[#   1]+0.027*[#   8]
    |psi|^2 = 0.993
==== e(   7) =    18.49850 eV ==== 

    |psi|^2 = 0.000
==== e(   8) =    19.37208 eV ==== 
     psi = 0.736*[#   2]+0.054*[#   3]+0.036*[#   5]+0.031*[#   1]+0.018*[#   4]
          +0.004*[#   6]
    |psi|^2 = 0.879
==== e(   9) =    20.53989 eV ==== 
     psi = 0.462*[#   5]+0.368*[#   3]+0.028*[#   4]+0.016*[#   9]+0.013*[#   7]
          +0.001*[#   8]
    |psi|^2 = 0.889

 k =   0.1732050808 -0.2449489743  0.3000000000
==== e(   1) =   -40.41543 eV ==== 
     psi = 0.911*[#   1]+0.040*[#   3]+0.027*[#   5]+0.013*[#   4]+0.009*[#   2]
          
    |psi|^2 = 1.000
==== e(   2) =   -18.95261 eV ==== 
     psi = 0.816*[#   6]+0.065*[#   3]+0.046*[#   2]+0.043*[#   5]+0.022*[#   4]
          +0.007*[#   1]
    |psi|^2 = 1.000
==== e(   3) =    -1.28087 eV ==== 
     psi = 0.415*[#   7]+0.276*[#   9]+0.138*[#   8]+0.059*[#   3]+0.039*[#   5]
          +0.027*[#   6]+0.020*[#   4]+0.013*[#   2]+0.012*[#   1]
    |psi|^2 = 0.998
==== e(   4) =    -0.09894 eV ==== 
     psi = 0.638*[#   9]+0.285*[#   7]+0.042*[#   8]+0.022*[#   5]+0.010*[#   3]
          +0.001*[#   4]
    |psi|^2 = 0.999
==== e(   5) =    -0.09894 eV ==== 
     psi = 0.762*[#   8]+0.197*[#   7]+0.026*[#   4]+0.007*[#   3]+0.005*[#   9]
          
    |psi|^2 = 0.999
==== e(   6) =    12.39216 eV ==== 
     psi = 0.279*[#   3]+0.186*[#   5]+0.150*[#   6]+0.093*[#   4]+0.084*[#   7]
          +0.083*[#   2]+0.056*[#   9]+0.034*[#   1]+0.028*[#   8]
    |psi|^2 = 0.993
==== e(   7) =    18.25282 eV ==== 

    |psi|^2 = 0.000
==== e(   8) =    19.15558 eV ==== 
     psi = 0.763*[#   2]+0.049*[#   3]+0.032*[#   5]+0.032*[#   1]+0.016*[#   4]
          +0.004*[#   6]
    |psi|^2 = 0.897
==== e(   9) =    20.47976 eV ==== 
     psi = 0.419*[#   3]+0.242*[#   4]+0.208*[#   5]+0.016*[#   7]+0.009*[#   8]
          +0.008*[#   9]
    |psi|^2 = 0.902

 k =   0.1828275852 -0.2585572506  0.3166666667
==== e(   1) =   -40.41246 eV ==== 
     psi = 0.919*[#   1]+0.035*[#   3]+0.023*[#   5]+0.012*[#   4]+0.011*[#   2]
          
    |psi|^2 = 1.000
==== e(   2) =   -18.91910 eV ==== 
     psi = 0.835*[#   6]+0.059*[#   3]+0.041*[#   2]+0.039*[#   5]+0.020*[#   4]
          +0.005*[#   1]
    |psi|^2 = 1.000
==== e(   3) =    -1.42276 eV ==== 
     psi = 0.411*[#   7]+0.274*[#   9]+0.137*[#   8]+0.064*[#   3]+0.043*[#   5]
          +0.025*[#   6]+0.021*[#   4]+0.012*[#   1]+0.010*[#   2]
    |psi|^2 = 0.998
==== e(   4) =    -0.14413 eV ==== 
     psi = 0.637*[#   9]+0.284*[#   7]+0.042*[#   8]+0.024*[#   5]+0.011*[#   3]
          +0.002*[#   4]
    |psi|^2 = 0.999
==== e(   5) =    -0.14413 eV ==== 
     psi = 0.760*[#   8]+0.197*[#   7]+0.028*[#   4]+0.007*[#   3]+0.005*[#   9]
          
    |psi|^2 = 0.999
==== e(   6) =    12.67919 eV ==== 
     psi = 0.290*[#   3]+0.193*[#   5]+0.133*[#   6]+0.097*[#   4]+0.087*[#   7]
          +0.077*[#   2]+0.058*[#   9]+0.029*[#   8]+0.029*[#   1]
    |psi|^2 = 0.992
==== e(   7) =    18.02653 eV ==== 

    |psi|^2 = 0.000
==== e(   8) =    18.95107 eV ==== 
     psi = 0.785*[#   2]+0.044*[#   3]+0.032*[#   1]+0.030*[#   5]+0.015*[#   4]
          +0.005*[#   6]
    |psi|^2 = 0.911
==== e(   9) =    20.43017 eV ==== 
     psi = 0.436*[#   4]+0.239*[#   3]+0.204*[#   5]+0.018*[#   8]+0.010*[#   7]
          +0.008*[#   9]
    |psi|^2 = 0.915

 k =   0.1924500897 -0.2721655270  0.3333333333
==== e(   1) =   -40.40964 eV ==== 
     psi = 0.927*[#   1]+0.030*[#   3]+0.020*[#   5]+0.013*[#   2]+0.010*[#   4]
          
    |psi|^2 = 1.000
==== e(   2) =   -18.88640 eV ==== 
     psi = 0.855*[#   6]+0.052*[#   3]+0.037*[#   2]+0.035*[#   5]+0.017*[#   4]
          +0.004*[#   1]
    |psi|^2 = 1.000
==== e(   3) =    -1.55915 eV ==== 
     psi = 0.409*[#   7]+0.273*[#   9]+0.136*[#   8]+0.070*[#   3]+0.047*[#   5]
          +0.023*[#   4]+0.022*[#   6]+0.011*[#   1]+0.008*[#   2]
    |psi|^2 = 0.998
==== e(   4) =    -0.18710 eV ==== 
     psi = 0.635*[#   9]+0.283*[#   7]+0.042*[#   8]+0.025*[#   5]+0.011*[#   3]
          +0.002*[#   4]
    |psi|^2 = 0.999
==== e(   5) =    -0.18710 eV ==== 
     psi = 0.759*[#   8]+0.197*[#   7]+0.030*[#   4]+0.008*[#   3]+0.005*[#   9]
          
    |psi|^2 = 0.999
==== e(   6) =    12.96610 eV ==== 
     psi = 0.301*[#   3]+0.201*[#   5]+0.115*[#   6]+0.100*[#   4]+0.089*[#   7]
          +0.072*[#   2]+0.060*[#   9]+0.030*[#   8]+0.023*[#   1]
    |psi|^2 = 0.992
==== e(   7) =    17.81972 eV ==== 

    |psi|^2 = 0.000
==== e(   8) =    18.75718 eV ==== 
     psi = 0.803*[#   2]+0.041*[#   3]+0.032*[#   1]+0.027*[#   5]+0.014*[#   4]
          +0.005*[#   6]
    |psi|^2 = 0.923
==== e(   9) =    20.38992 eV ==== 
     psi = 0.646*[#   4]+0.140*[#   3]+0.103*[#   5]+0.028*[#   8]+0.006*[#   7]
          +0.004*[#   9]
    |psi|^2 = 0.927

 k =   0.2020725942 -0.2857738033  0.3500000000
==== e(   1) =   -40.40702 eV ==== 
     psi = 0.935*[#   1]+0.024*[#   3]+0.016*[#   5]+0.016*[#   2]+0.008*[#   4]
          
    |psi|^2 = 1.000
==== e(   2) =   -18.85496 eV ==== 
     psi = 0.875*[#   6]+0.045*[#   3]+0.032*[#   2]+0.030*[#   5]+0.015*[#   4]
          +0.003*[#   1]
    |psi|^2 = 1.000
==== e(   3) =    -1.68841 eV ==== 
     psi = 0.407*[#   7]+0.272*[#   9]+0.136*[#   8]+0.075*[#   3]+0.050*[#   5]
          +0.025*[#   4]+0.019*[#   6]+0.009*[#   1]+0.006*[#   2]
    |psi|^2 = 0.998
==== e(   4) =    -0.22742 eV ==== 
     psi = 0.634*[#   9]+0.283*[#   7]+0.042*[#   8]+0.027*[#   5]+0.012*[#   3]
          +0.002*[#   4]
    |psi|^2 = 0.999
==== e(   5) =    -0.22742 eV ==== 
     psi = 0.757*[#   8]+0.197*[#   7]+0.032*[#   4]+0.008*[#   3]+0.005*[#   9]
          
    |psi|^2 = 0.999
==== e(   6) =    13.25031 eV ==== 
     psi = 0.313*[#   3]+0.209*[#   5]+0.104*[#   4]+0.098*[#   6]+0.091*[#   7]
          +0.068*[#   2]+0.060*[#   9]+0.030*[#   8]+0.018*[#   1]
    |psi|^2 = 0.991
==== e(   7) =    17.63246 eV ==== 

    |psi|^2 = 0.000
==== e(   8) =    18.57259 eV ==== 
     psi = 0.817*[#   2]+0.038*[#   3]+0.032*[#   1]+0.025*[#   5]+0.013*[#   4]
          +0.005*[#   6]+0.001*[#   7]
    |psi|^2 = 0.932
==== e(   9) =    20.35782 eV ==== 
     psi = 0.553*[#   4]+0.189*[#   3]+0.155*[#   5]+0.025*[#   8]+0.008*[#   7]
          +0.007*[#   9]
    |psi|^2 = 0.938

 k =   0.2116950987 -0.2993820797  0.3666666667
==== e(   1) =   -40.40461 eV ==== 
     psi = 0.943*[#   1]+0.019*[#   3]+0.018*[#   2]+0.013*[#   5]+0.006*[#   4]
          
    |psi|^2 = 1.000
==== e(   2) =   -18.82523 eV ==== 
     psi = 0.895*[#   6]+0.037*[#   3]+0.029*[#   2]+0.025*[#   5]+0.012*[#   4]
          +0.002*[#   1]
    |psi|^2 = 1.000
==== e(   3) =    -1.80894 eV ==== 
     psi = 0.407*[#   7]+0.271*[#   9]+0.136*[#   8]+0.078*[#   3]+0.052*[#   5]
          +0.026*[#   4]+0.016*[#   6]+0.008*[#   1]+0.004*[#   2]
    |psi|^2 = 0.998
==== e(   4) =    -0.26465 eV ==== 
     psi = 0.633*[#   9]+0.282*[#   7]+0.042*[#   8]+0.028*[#   5]+0.012*[#   3]
          +0.002*[#   4]
    |psi|^2 = 0.999
==== e(   5) =    -0.26465 eV ==== 
     psi = 0.756*[#   8]+0.197*[#   7]+0.033*[#   4]+0.009*[#   3]+0.005*[#   9]
          
    |psi|^2 = 0.999
==== e(   6) =    13.52887 eV ==== 
     psi = 0.325*[#   3]+0.217*[#   5]+0.108*[#   4]+0.091*[#   7]+0.080*[#   6]
          +0.064*[#   2]+0.061*[#   9]+0.030*[#   8]+0.013*[#   1]
    |psi|^2 = 0.990
==== e(   7) =    17.46480 eV ==== 

    |psi|^2 = 0.000
==== e(   8) =    18.39633 eV ==== 
     psi = 0.829*[#   2]+0.035*[#   3]+0.032*[#   1]+0.023*[#   5]+0.012*[#   4]
          +0.006*[#   6]+0.002*[#   7]+0.001*[#   9]
    |psi|^2 = 0.940
==== e(   9) =    20.33272 eV ==== 
     psi = 0.423*[#   5]+0.316*[#   4]+0.167*[#   3]+0.019*[#   9]+0.015*[#   8]
          +0.008*[#   7]
    |psi|^2 = 0.948

 k =   0.2213176032 -0.3129903560  0.3833333333
==== e(   1) =   -40.40241 eV ==== 
     psi = 0.949*[#   1]+0.021*[#   2]+0.015*[#   3]+0.010*[#   5]+0.005*[#   4]
          
    |psi|^2 = 1.000
==== e(   2) =   -18.79769 eV ==== 
     psi = 0.914*[#   6]+0.029*[#   3]+0.026*[#   2]+0.020*[#   5]+0.010*[#   4]
          +0.001*[#   1]
    |psi|^2 = 1.000
==== e(   3) =    -1.91923 eV ==== 
     psi = 0.407*[#   7]+0.271*[#   9]+0.136*[#   8]+0.081*[#   3]+0.054*[#   5]
          +0.027*[#   4]+0.013*[#   6]+0.006*[#   1]+0.003*[#   2]
    |psi|^2 = 0.998
==== e(   4) =    -0.29843 eV ==== 
     psi = 0.632*[#   9]+0.281*[#   7]+0.042*[#   8]+0.029*[#   5]+0.013*[#   3]
          +0.002*[#   4]
    |psi|^2 = 0.999
==== e(   5) =    -0.29843 eV ==== 
     psi = 0.754*[#   8]+0.197*[#   7]+0.034*[#   4]+0.009*[#   3]+0.005*[#   9]
          
    |psi|^2 = 0.999
==== e(   6) =    13.79840 eV ==== 
     psi = 0.338*[#   3]+0.225*[#   5]+0.113*[#   4]+0.090*[#   7]+0.063*[#   6]
          +0.060*[#   9]+0.060*[#   2]+0.030*[#   8]+0.009*[#   1]
    |psi|^2 = 0.989
==== e(   7) =    17.31678 eV ==== 

    |psi|^2 = 0.000
==== e(   8) =    18.22795 eV ==== 
     psi = 0.839*[#   2]+0.032*[#   1]+0.032*[#   3]+0.021*[#   5]+0.011*[#   4]
          +0.006*[#   6]+0.002*[#   7]+0.001*[#   9]
    |psi|^2 = 0.945
==== e(   9) =    20.31353 eV ==== 
     psi = 0.445*[#   3]+0.248*[#   4]+0.219*[#   5]+0.021*[#   7]+0.012*[#   8]
          +0.010*[#   9]
    |psi|^2 = 0.955

 k =   0.2309401077 -0.3265986324  0.4000000000
==== e(   1) =   -40.40044 eV ==== 
     psi = 0.955*[#   1]+0.023*[#   2]+0.011*[#   3]+0.007*[#   5]+0.004*[#   4]
          
    |psi|^2 = 1.000
==== e(   2) =   -18.77277 eV ==== 
     psi = 0.932*[#   6]+0.023*[#   2]+0.022*[#   3]+0.015*[#   5]+0.007*[#   4]
          
    |psi|^2 = 1.000
==== e(   3) =    -2.01788 eV ==== 
     psi = 0.408*[#   7]+0.272*[#   9]+0.136*[#   8]+0.083*[#   3]+0.055*[#   5]
          +0.028*[#   4]+0.010*[#   6]+0.005*[#   1]+0.002*[#   2]
    |psi|^2 = 0.999
==== e(   4) =    -0.32841 eV ==== 
     psi = 0.632*[#   9]+0.281*[#   7]+0.042*[#   8]+0.029*[#   5]+0.013*[#   3]
          +0.002*[#   4]
    |psi|^2 = 0.999
==== e(   5) =    -0.32841 eV ==== 
     psi = 0.753*[#   8]+0.197*[#   7]+0.035*[#   4]+0.009*[#   3]+0.005*[#   9]
          
    |psi|^2 = 0.999
==== e(   6) =    14.05490 eV ==== 
     psi = 0.350*[#   3]+0.233*[#   5]+0.117*[#   4]+0.089*[#   7]+0.059*[#   9]
          +0.055*[#   2]+0.048*[#   6]+0.030*[#   8]+0.006*[#   1]
    |psi|^2 = 0.987
==== e(   7) =    17.18844 eV ==== 

    |psi|^2 = 0.000
==== e(   8) =    18.06779 eV ==== 
     psi = 0.849*[#   2]+0.032*[#   1]+0.028*[#   3]+0.019*[#   5]+0.009*[#   4]
          +0.007*[#   6]+0.002*[#   7]+0.001*[#   9]
    |psi|^2 = 0.949
==== e(   9) =    20.29922 eV ==== 
     psi = 0.476*[#   5]+0.381*[#   3]+0.060*[#   4]+0.023*[#   9]+0.018*[#   7]
          +0.003*[#   8]
    |psi|^2 = 0.961

 k =   0.2405626122 -0.3402069087  0.4166666667
==== e(   1) =   -40.39880 eV ==== 
     psi = 0.960*[#   1]+0.025*[#   2]+0.007*[#   3]+0.005*[#   5]+0.002*[#   4]
          
    |psi|^2 = 1.000
==== e(   2) =   -18.75088 eV ==== 
     psi = 0.947*[#   6]+0.021*[#   2]+0.016*[#   3]+0.010*[#   5]+0.005*[#   4]
          
    |psi|^2 = 1.000
==== e(   3) =    -2.10366 eV ==== 
     psi = 0.410*[#   7]+0.273*[#   9]+0.137*[#   8]+0.084*[#   3]+0.056*[#   5]
          +0.028*[#   4]+0.007*[#   6]+0.003*[#   1]+0.001*[#   2]
    |psi|^2 = 0.999
==== e(   4) =    -0.35429 eV ==== 
     psi = 0.631*[#   9]+0.281*[#   7]+0.042*[#   8]+0.030*[#   5]+0.013*[#   3]
          +0.002*[#   4]
    |psi|^2 = 0.999
==== e(   5) =    -0.35429 eV ==== 
     psi = 0.753*[#   8]+0.196*[#   7]+0.036*[#   4]+0.009*[#   3]+0.005*[#   9]
          
    |psi|^2 = 0.999
==== e(   6) =    14.29341 eV ==== 
     psi = 0.363*[#   3]+0.242*[#   5]+0.121*[#   4]+0.087*[#   7]+0.058*[#   9]
          +0.048*[#   2]+0.034*[#   6]+0.029*[#   8]+0.003*[#   1]
    |psi|^2 = 0.985
==== e(   7) =    17.07980 eV ==== 

    |psi|^2 = 0.000
==== e(   8) =    17.91717 eV ==== 
     psi = 0.860*[#   2]+0.032*[#   1]+0.024*[#   3]+0.016*[#   5]+0.008*[#   6]
          +0.008*[#   4]+0.002*[#   7]+0.001*[#   9]
    |psi|^2 = 0.952
==== e(   9) =    20.28883 eV ==== 
     psi = 0.524*[#   4]+0.234*[#   3]+0.162*[#   5]+0.026*[#   8]+0.011*[#   7]
          +0.008*[#   9]
    |psi|^2 = 0.966

 k =   0.2501851166 -0.3538151851  0.4333333333
==== e(   1) =   -40.39739 eV ==== 
     psi = 0.963*[#   1]+0.027*[#   2]+0.004*[#   3]+0.003*[#   5]+0.001*[#   4]
          
    |psi|^2 = 1.000
==== e(   2) =   -18.73241 eV ==== 
     psi = 0.961*[#   6]+0.019*[#   2]+0.010*[#   3]+0.007*[#   5]+0.003*[#   4]
          
    |psi|^2 = 1.000
==== e(   3) =    -2.17543 eV ==== 
     psi = 0.412*[#   7]+0.274*[#   9]+0.137*[#   8]+0.084*[#   3]+0.056*[#   5]
          +0.028*[#   4]+0.004*[#   6]+0.002*[#   1]
    |psi|^2 = 0.999
==== e(   4) =    -0.37582 eV ==== 
     psi = 0.631*[#   9]+0.280*[#   7]+0.043*[#   8]+0.030*[#   5]+0.013*[#   3]
          +0.002*[#   4]
    |psi|^2 = 0.999
==== e(   5) =    -0.37582 eV ==== 
     psi = 0.752*[#   8]+0.196*[#   7]+0.036*[#   4]+0.009*[#   3]+0.005*[#   9]
          
    |psi|^2 = 0.999
==== e(   6) =    14.50782 eV ==== 
     psi = 0.375*[#   3]+0.250*[#   5]+0.125*[#   4]+0.085*[#   7]+0.057*[#   9]
          +0.038*[#   2]+0.028*[#   8]+0.022*[#   6]+0.002*[#   1]
    |psi|^2 = 0.983
==== e(   7) =    16.99088 eV ==== 

    |psi|^2 = 0.000
==== e(   8) =    17.77932 eV ==== 
     psi = 0.871*[#   2]+0.031*[#   1]+0.019*[#   3]+0.013*[#   5]+0.009*[#   6]
          +0.006*[#   4]+0.002*[#   7]+0.001*[#   9]
    |psi|^2 = 0.954
==== e(   9) =    20.28155 eV ==== 
     psi = 0.441*[#   3]+0.433*[#   5]+0.048*[#   4]+0.022*[#   7]+0.022*[#   9]
          +0.002*[#   8]
    |psi|^2 = 0.969

 k =   0.2598076211 -0.3674234614  0.4500000000
==== e(   1) =   -40.39630 eV ==== 
     psi = 0.965*[#   1]+0.029*[#   2]+0.002*[#   3]+0.002*[#   5]
    |psi|^2 = 1.000
==== e(   2) =   -18.71768 eV ==== 
     psi = 0.971*[#   6]+0.017*[#   2]+0.006*[#   3]+0.004*[#   5]+0.002*[#   4]
          
    |psi|^2 = 1.000
==== e(   3) =    -2.23225 eV ==== 
     psi = 0.414*[#   7]+0.276*[#   9]+0.138*[#   8]+0.084*[#   3]+0.056*[#   5]
          +0.028*[#   4]+0.002*[#   6]+0.001*[#   1]
    |psi|^2 = 0.999
==== e(   4) =    -0.39280 eV ==== 
     psi = 0.630*[#   9]+0.280*[#   7]+0.043*[#   8]+0.031*[#   5]+0.014*[#   3]
          +0.002*[#   4]
    |psi|^2 = 0.999
==== e(   5) =    -0.39280 eV ==== 
     psi = 0.752*[#   8]+0.196*[#   7]+0.036*[#   4]+0.010*[#   3]+0.005*[#   9]
          
    |psi|^2 = 0.999
==== e(   6) =    14.69038 eV ==== 
     psi = 0.387*[#   3]+0.258*[#   5]+0.129*[#   4]+0.084*[#   7]+0.056*[#   9]
          +0.028*[#   8]+0.026*[#   2]+0.013*[#   6]
    |psi|^2 = 0.982
==== e(   7) =    16.92171 eV ==== 

    |psi|^2 = 0.000
==== e(   8) =    17.65917 eV ==== 
     psi = 0.884*[#   2]+0.031*[#   1]+0.013*[#   3]+0.011*[#   6]+0.009*[#   5]
          +0.004*[#   4]+0.001*[#   7]
    |psi|^2 = 0.955
==== e(   9) =    20.27665 eV ==== 
     psi = 0.568*[#   5]+0.249*[#   4]+0.108*[#   3]+0.029*[#   9]+0.012*[#   8]
          +0.005*[#   7]
    |psi|^2 = 0.971

 k =   0.2694301256 -0.3810317378  0.4666666667
==== e(   1) =   -40.39550 eV ==== 
     psi = 0.967*[#   1]+0.030*[#   2]+0.001*[#   3]
    |psi|^2 = 1.000
==== e(   2) =   -18.70695 eV ==== 
     psi = 0.978*[#   6]+0.016*[#   2]+0.002*[#   3]+0.002*[#   5]
    |psi|^2 = 1.000
==== e(   3) =    -2.27338 eV ==== 
     psi = 0.416*[#   7]+0.277*[#   9]+0.139*[#   8]+0.083*[#   3]+0.055*[#   5]
          +0.028*[#   4]+0.001*[#   6]
    |psi|^2 = 0.999
==== e(   4) =    -0.40504 eV ==== 
     psi = 0.630*[#   9]+0.280*[#   7]+0.043*[#   8]+0.031*[#   5]+0.014*[#   3]
          +0.002*[#   4]
    |psi|^2 = 0.999
==== e(   5) =    -0.40504 eV ==== 
     psi = 0.751*[#   8]+0.196*[#   7]+0.037*[#   4]+0.010*[#   3]+0.005*[#   9]
          
    |psi|^2 = 0.999
==== e(   6) =    14.83182 eV ==== 
     psi = 0.398*[#   3]+0.265*[#   5]+0.133*[#   4]+0.082*[#   7]+0.055*[#   9]
          +0.027*[#   8]+0.014*[#   2]+0.006*[#   6]
    |psi|^2 = 0.981
==== e(   7) =    16.87229 eV ==== 

    |psi|^2 = 0.000
==== e(   8) =    17.56392 eV ==== 
     psi = 0.897*[#   2]+0.031*[#   1]+0.012*[#   6]+0.007*[#   3]+0.005*[#   5]
          +0.002*[#   4]
    |psi|^2 = 0.955
==== e(   9) =    20.27357 eV ==== 
     psi = 0.566*[#   4]+0.305*[#   3]+0.054*[#   5]+0.029*[#   8]+0.015*[#   7]
          +0.003*[#   9]
    |psi|^2 = 0.972

 k =   0.2790526301 -0.3946400141  0.4833333333
==== e(   1) =   -40.39506 eV ==== 
     psi = 0.968*[#   1]+0.031*[#   2]
    |psi|^2 = 1.000
==== e(   2) =   -18.70044 eV ==== 
     psi = 0.983*[#   6]+0.016*[#   2]
    |psi|^2 = 1.000
==== e(   3) =    -2.29831 eV ==== 
     psi = 0.417*[#   7]+0.278*[#   9]+0.139*[#   8]+0.083*[#   3]+0.055*[#   5]
          +0.028*[#   4]
    |psi|^2 = 0.999
==== e(   4) =    -0.41243 eV ==== 
     psi = 0.630*[#   9]+0.280*[#   7]+0.043*[#   8]+0.031*[#   5]+0.014*[#   3]
          +0.002*[#   4]
    |psi|^2 = 0.999
==== e(   5) =    -0.41243 eV ==== 
     psi = 0.751*[#   8]+0.196*[#   7]+0.037*[#   4]+0.010*[#   3]+0.005*[#   9]
          
    |psi|^2 = 0.999
==== e(   6) =    14.92223 eV ==== 
     psi = 0.406*[#   3]+0.271*[#   5]+0.135*[#   4]+0.082*[#   7]+0.054*[#   9]
          +0.027*[#   8]+0.004*[#   2]+0.001*[#   6]
    |psi|^2 = 0.980
==== e(   7) =    16.84264 eV ==== 

    |psi|^2 = 0.000
==== e(   8) =    17.50181 eV ==== 
     psi = 0.907*[#   2]+0.030*[#   1]+0.013*[#   6]+0.002*[#   3]+0.001*[#   5]
          
    |psi|^2 = 0.955
==== e(   9) =    20.27189 eV ==== 
     psi = 0.600*[#   5]+0.192*[#   3]+0.134*[#   4]+0.030*[#   9]+0.010*[#   7]
          +0.007*[#   8]
    |psi|^2 = 0.972

 k =   0.2886751346 -0.4082482905  0.5000000000
==== e(   1) =   -40.39490 eV ==== 
     psi = 0.968*[#   1]+0.031*[#   2]
    |psi|^2 = 1.000
==== e(   2) =   -18.69826 eV ==== 
     psi = 0.984*[#   6]+0.015*[#   2]
    |psi|^2 = 1.000
==== e(   3) =    -2.30664 eV ==== 
     psi = 0.417*[#   7]+0.278*[#   9]+0.139*[#   8]+0.082*[#   3]+0.055*[#   5]
          +0.027*[#   4]
    |psi|^2 = 0.999
==== e(   4) =    -0.41491 eV ==== 
     psi = 0.630*[#   9]+0.280*[#   7]+0.043*[#   8]+0.031*[#   5]+0.014*[#   3]
          +0.002*[#   4]
    |psi|^2 = 0.999
==== e(   5) =    -0.41490 eV ==== 
     psi = 0.751*[#   8]+0.196*[#   7]+0.037*[#   4]+0.010*[#   3]+0.005*[#   9]
          
    |psi|^2 = 0.999
==== e(   6) =    14.95344 eV ==== 
     psi = 0.409*[#   3]+0.272*[#   5]+0.136*[#   4]+0.081*[#   7]+0.054*[#   9]
          +0.027*[#   8]
    |psi|^2 = 0.980
==== e(   7) =    16.83275 eV ==== 

    |psi|^2 = 0.000
==== e(   8) =    17.48015 eV ==== 
     psi = 0.911*[#   2]+0.030*[#   1]+0.013*[#   6]
    |psi|^2 = 0.955
==== e(   9) =    20.27136 eV ==== 
     psi = 0.468*[#   5]+0.362*[#   3]+0.096*[#   4]+0.024*[#   9]+0.018*[#   7]
          +0.005*[#   8]
    |psi|^2 = 0.973

 k =   0.2910807607 -0.4014441523  0.5041666667
==== e(   1) =   -40.39490 eV ==== 
     psi = 0.968*[#   1]+0.031*[#   2]
    |psi|^2 = 1.000
==== e(   2) =   -18.69829 eV ==== 
     psi = 0.984*[#   6]+0.015*[#   2]
    |psi|^2 = 1.000
==== e(   3) =    -2.30608 eV ==== 
     psi = 0.417*[#   7]+0.278*[#   9]+0.139*[#   8]+0.082*[#   3]+0.055*[#   5]
          +0.027*[#   4]
    |psi|^2 = 0.999
==== e(   4) =    -0.41572 eV ==== 
     psi = 0.635*[#   9]+0.238*[#   7]+0.079*[#   8]+0.031*[#   5]+0.012*[#   3]
          +0.004*[#   4]
    |psi|^2 = 0.999
==== e(   5) =    -0.41460 eV ==== 
     psi = 0.714*[#   8]+0.238*[#   7]+0.035*[#   4]+0.012*[#   3]
    |psi|^2 = 0.999
==== e(   6) =    14.95352 eV ==== 
     psi = 0.409*[#   3]+0.272*[#   5]+0.136*[#   4]+0.081*[#   7]+0.054*[#   9]
          +0.027*[#   8]
    |psi|^2 = 0.980
==== e(   7) =    16.82942 eV ==== 
     psi = 0.003*[#   5]+0.001*[#   3]
    |psi|^2 = 0.005
==== e(   8) =    17.48026 eV ==== 
     psi = 0.910*[#   2]+0.030*[#   1]+0.013*[#   6]
    |psi|^2 = 0.954
==== e(   9) =    20.27061 eV ==== 
     psi = 0.694*[#   4]+0.231*[#   3]+0.035*[#   8]+0.012*[#   7]
    |psi|^2 = 0.973

 k =   0.2934863868 -0.3946400141  0.5083333333
==== e(   1) =   -40.39490 eV ==== 
     psi = 0.968*[#   1]+0.031*[#   2]
    |psi|^2 = 1.000
==== e(   2) =   -18.69838 eV ==== 
     psi = 0.984*[#   6]+0.015*[#   2]
    |psi|^2 = 1.000
==== e(   3) =    -2.30438 eV ==== 
     psi = 0.417*[#   7]+0.278*[#   9]+0.139*[#   8]+0.082*[#   3]+0.055*[#   5]
          +0.027*[#   4]
    |psi|^2 = 0.999
==== e(   4) =    -0.41816 eV ==== 
     psi = 0.635*[#   9]+0.238*[#   7]+0.079*[#   8]+0.031*[#   5]+0.012*[#   3]
          +0.004*[#   4]
    |psi|^2 = 0.999
==== e(   5) =    -0.41368 eV ==== 
     psi = 0.714*[#   8]+0.238*[#   7]+0.035*[#   4]+0.012*[#   3]
    |psi|^2 = 0.999
==== e(   6) =    14.95376 eV ==== 
     psi = 0.409*[#   3]+0.273*[#   5]+0.136*[#   4]+0.081*[#   7]+0.054*[#   9]
          +0.027*[#   8]
    |psi|^2 = 0.980
==== e(   7) =    16.81934 eV ==== 
     psi = 0.013*[#   5]+0.005*[#   3]+0.002*[#   4]
    |psi|^2 = 0.020
==== e(   8) =    17.48074 eV ==== 
     psi = 0.906*[#   2]+0.030*[#   1]+0.013*[#   6]+0.003*[#   5]
    |psi|^2 = 0.954
==== e(   9) =    20.26834 eV ==== 
     psi = 0.694*[#   4]+0.231*[#   3]+0.035*[#   8]+0.012*[#   7]
    |psi|^2 = 0.972

 k =   0.2958920130 -0.3878358759  0.5125000000
==== e(   1) =   -40.39489 eV ==== 
     psi = 0.968*[#   1]+0.031*[#   2]
    |psi|^2 = 1.000
==== e(   2) =   -18.69854 eV ==== 
     psi = 0.984*[#   6]+0.015*[#   2]
    |psi|^2 = 1.000
==== e(   3) =    -2.30155 eV ==== 
     psi = 0.418*[#   7]+0.278*[#   9]+0.139*[#   8]+0.082*[#   3]+0.055*[#   5]
          +0.027*[#   4]
    |psi|^2 = 0.999
==== e(   4) =    -0.42220 eV ==== 
     psi = 0.635*[#   9]+0.238*[#   7]+0.079*[#   8]+0.031*[#   5]+0.012*[#   3]
          +0.004*[#   4]
    |psi|^2 = 0.999
==== e(   5) =    -0.41214 eV ==== 
     psi = 0.714*[#   8]+0.238*[#   7]+0.035*[#   4]+0.012*[#   3]
    |psi|^2 = 0.999
==== e(   6) =    14.95416 eV ==== 
     psi = 0.409*[#   3]+0.273*[#   5]+0.136*[#   4]+0.081*[#   7]+0.054*[#   9]
          +0.027*[#   8]
    |psi|^2 = 0.980
==== e(   7) =    16.80235 eV ==== 
     psi = 0.029*[#   5]+0.011*[#   3]+0.004*[#   4]+0.001*[#   9]
    |psi|^2 = 0.046
==== e(   8) =    17.48207 eV ==== 
     psi = 0.901*[#   2]+0.030*[#   1]+0.013*[#   6]+0.005*[#   5]+0.002*[#   3]
          
    |psi|^2 = 0.952
==== e(   9) =    20.26458 eV ==== 
     psi = 0.694*[#   4]+0.231*[#   3]+0.035*[#   8]+0.012*[#   7]
    |psi|^2 = 0.972

 k =   0.2982976391 -0.3810317378  0.5166666667
==== e(   1) =   -40.39487 eV ==== 
     psi = 0.968*[#   1]+0.031*[#   2]
    |psi|^2 = 1.000
==== e(   2) =   -18.69876 eV ==== 
     psi = 0.983*[#   6]+0.015*[#   2]
    |psi|^2 = 1.000
==== e(   3) =    -2.29760 eV ==== 
     psi = 0.418*[#   7]+0.279*[#   9]+0.139*[#   8]+0.082*[#   3]+0.055*[#   5]
          +0.027*[#   4]
    |psi|^2 = 0.999
==== e(   4) =    -0.42784 eV ==== 
     psi = 0.635*[#   9]+0.238*[#   7]+0.079*[#   8]+0.031*[#   5]+0.012*[#   3]
          +0.004*[#   4]
    |psi|^2 = 0.999
==== e(   5) =    -0.41000 eV ==== 
     psi = 0.715*[#   8]+0.238*[#   7]+0.035*[#   4]+0.012*[#   3]
    |psi|^2 = 0.999
==== e(   6) =    14.95473 eV ==== 
     psi = 0.409*[#   3]+0.273*[#   5]+0.136*[#   4]+0.081*[#   7]+0.054*[#   9]
          +0.027*[#   8]
    |psi|^2 = 0.980
==== e(   7) =    16.77822 eV ==== 
     psi = 0.051*[#   5]+0.019*[#   3]+0.006*[#   4]+0.002*[#   9]+0.001*[#   2]
          
    |psi|^2 = 0.081
==== e(   8) =    17.48493 eV ==== 
     psi = 0.893*[#   2]+0.030*[#   1]+0.014*[#   6]+0.008*[#   5]+0.003*[#   3]
          
    |psi|^2 = 0.949
==== e(   9) =    20.25934 eV ==== 
     psi = 0.694*[#   4]+0.231*[#   3]+0.035*[#   8]+0.012*[#   7]
    |psi|^2 = 0.972

 k =   0.3007032652 -0.3742275996  0.5208333333
==== e(   1) =   -40.39486 eV ==== 
     psi = 0.968*[#   1]+0.031*[#   2]
    |psi|^2 = 1.000
==== e(   2) =   -18.69905 eV ==== 
     psi = 0.983*[#   6]+0.015*[#   2]
    |psi|^2 = 1.000
==== e(   3) =    -2.29252 eV ==== 
     psi = 0.418*[#   7]+0.279*[#   9]+0.139*[#   8]+0.082*[#   3]+0.054*[#   5]
          +0.027*[#   4]
    |psi|^2 = 0.999
==== e(   4) =    -0.43506 eV ==== 
     psi = 0.635*[#   9]+0.238*[#   7]+0.079*[#   8]+0.031*[#   5]+0.011*[#   3]
          +0.004*[#   4]
    |psi|^2 = 0.999
==== e(   5) =    -0.40725 eV ==== 
     psi = 0.715*[#   8]+0.238*[#   7]+0.035*[#   4]+0.012*[#   3]
    |psi|^2 = 0.999
==== e(   6) =    14.95547 eV ==== 
     psi = 0.409*[#   3]+0.273*[#   5]+0.136*[#   4]+0.081*[#   7]+0.054*[#   9]
          +0.027*[#   8]
    |psi|^2 = 0.979
==== e(   7) =    16.74681 eV ==== 
     psi = 0.078*[#   5]+0.029*[#   3]+0.010*[#   4]+0.004*[#   9]+0.003*[#   2]
          +0.001*[#   7]
    |psi|^2 = 0.125
==== e(   8) =    17.49000 eV ==== 
     psi = 0.884*[#   2]+0.030*[#   1]+0.014*[#   6]+0.010*[#   5]+0.004*[#   3]
          +0.001*[#   4]
    |psi|^2 = 0.943
==== e(   9) =    20.25262 eV ==== 
     psi = 0.694*[#   4]+0.231*[#   3]+0.035*[#   8]+0.012*[#   7]
    |psi|^2 = 0.972

 k =   0.3031088913 -0.3674234614  0.5250000000
==== e(   1) =   -40.39484 eV ==== 
     psi = 0.968*[#   1]+0.031*[#   2]
    |psi|^2 = 1.000
==== e(   2) =   -18.69941 eV ==== 
     psi = 0.983*[#   6]+0.015*[#   2]+0.001*[#   5]
    |psi|^2 = 1.000
==== e(   3) =    -2.28632 eV ==== 
     psi = 0.418*[#   7]+0.279*[#   9]+0.139*[#   8]+0.081*[#   3]+0.054*[#   5]
          +0.027*[#   4]
    |psi|^2 = 0.999
==== e(   4) =    -0.44382 eV ==== 
     psi = 0.635*[#   9]+0.238*[#   7]+0.079*[#   8]+0.030*[#   5]+0.011*[#   3]
          +0.004*[#   4]+0.001*[#   2]
    |psi|^2 = 0.999
==== e(   5) =    -0.40389 eV ==== 
     psi = 0.715*[#   8]+0.238*[#   7]+0.035*[#   4]+0.012*[#   3]
    |psi|^2 = 0.999
==== e(   6) =    14.95639 eV ==== 
     psi = 0.409*[#   3]+0.273*[#   5]+0.136*[#   4]+0.080*[#   7]+0.054*[#   9]
          +0.027*[#   8]
    |psi|^2 = 0.979
==== e(   7) =    16.70809 eV ==== 
     psi = 0.110*[#   5]+0.041*[#   3]+0.014*[#   4]+0.005*[#   9]+0.005*[#   2]
          +0.002*[#   7]
    |psi|^2 = 0.177
==== e(   8) =    17.49794 eV ==== 
     psi = 0.874*[#   2]+0.030*[#   1]+0.013*[#   6]+0.011*[#   5]+0.004*[#   3]
          +0.001*[#   4]
    |psi|^2 = 0.934
==== e(   9) =    20.24447 eV ==== 
     psi = 0.694*[#   4]+0.231*[#   3]+0.035*[#   8]+0.012*[#   7]
    |psi|^2 = 0.971

 k =   0.3055145174 -0.3606193232  0.5291666667
==== e(   1) =   -40.39482 eV ==== 
     psi = 0.968*[#   1]+0.031*[#   2]
    |psi|^2 = 1.000
==== e(   2) =   -18.69983 eV ==== 
     psi = 0.982*[#   6]+0.014*[#   2]+0.002*[#   5]
    |psi|^2 = 1.000
==== e(   3) =    -2.27900 eV ==== 
     psi = 0.419*[#   7]+0.279*[#   9]+0.140*[#   8]+0.081*[#   3]+0.054*[#   5]
          +0.027*[#   4]
    |psi|^2 = 0.999
==== e(   4) =    -0.45408 eV ==== 
     psi = 0.635*[#   9]+0.238*[#   7]+0.079*[#   8]+0.030*[#   5]+0.011*[#   3]
          +0.004*[#   4]+0.002*[#   2]
    |psi|^2 = 0.999
==== e(   5) =    -0.39994 eV ==== 
     psi = 0.715*[#   8]+0.238*[#   7]+0.034*[#   4]+0.011*[#   3]
    |psi|^2 = 0.999
==== e(   6) =    14.95749 eV ==== 
     psi = 0.409*[#   3]+0.273*[#   5]+0.136*[#   4]+0.080*[#   7]+0.053*[#   9]
          +0.027*[#   8]
    |psi|^2 = 0.979
==== e(   7) =    16.66226 eV ==== 
     psi = 0.144*[#   5]+0.054*[#   3]+0.018*[#   4]+0.006*[#   2]+0.006*[#   9]
          +0.002*[#   7]+0.001*[#   6]
    |psi|^2 = 0.234
==== e(   8) =    17.50926 eV ==== 
     psi = 0.863*[#   2]+0.029*[#   1]+0.013*[#   6]+0.012*[#   5]+0.004*[#   3]
          +0.001*[#   4]
    |psi|^2 = 0.924
==== e(   9) =    20.23491 eV ==== 
     psi = 0.693*[#   4]+0.231*[#   3]+0.035*[#   8]+0.012*[#   7]
    |psi|^2 = 0.971

 k =   0.3079201436 -0.3538151851  0.5333333333
==== e(   1) =   -40.39479 eV ==== 
     psi = 0.968*[#   1]+0.030*[#   2]
    |psi|^2 = 1.000
==== e(   2) =   -18.70032 eV ==== 
     psi = 0.982*[#   6]+0.014*[#   2]+0.002*[#   5]
    |psi|^2 = 1.000
==== e(   3) =    -2.27057 eV ==== 
     psi = 0.419*[#   7]+0.279*[#   9]+0.140*[#   8]+0.081*[#   3]+0.054*[#   5]
          +0.027*[#   4]
    |psi|^2 = 0.999
==== e(   4) =    -0.46579 eV ==== 
     psi = 0.635*[#   9]+0.238*[#   7]+0.079*[#   8]+0.030*[#   5]+0.011*[#   3]
          +0.004*[#   4]+0.002*[#   2]
    |psi|^2 = 0.999
==== e(   5) =    -0.39539 eV ==== 
     psi = 0.715*[#   8]+0.238*[#   7]+0.034*[#   4]+0.011*[#   3]
    |psi|^2 = 0.999
==== e(   6) =    14.95879 eV ==== 
     psi = 0.410*[#   3]+0.273*[#   5]+0.137*[#   4]+0.079*[#   7]+0.053*[#   9]
          +0.026*[#   8]
    |psi|^2 = 0.978
==== e(   7) =    16.60968 eV ==== 
     psi = 0.181*[#   5]+0.068*[#   3]+0.023*[#   4]+0.008*[#   2]+0.008*[#   9]
          +0.003*[#   7]+0.002*[#   6]
    |psi|^2 = 0.294
==== e(   8) =    17.52425 eV ==== 
     psi = 0.853*[#   2]+0.029*[#   1]+0.013*[#   6]+0.012*[#   5]+0.004*[#   3]
          +0.001*[#   4]
    |psi|^2 = 0.913
==== e(   9) =    20.22398 eV ==== 
     psi = 0.693*[#   4]+0.231*[#   3]+0.034*[#   8]+0.011*[#   7]
    |psi|^2 = 0.970

 k =   0.3103257697 -0.3470110469  0.5375000000
==== e(   1) =   -40.39476 eV ==== 
     psi = 0.968*[#   1]+0.030*[#   2]
    |psi|^2 = 1.000
==== e(   2) =   -18.70089 eV ==== 
     psi = 0.981*[#   6]+0.014*[#   2]+0.003*[#   5]+0.001*[#   3]
    |psi|^2 = 1.000
==== e(   3) =    -2.26103 eV ==== 
     psi = 0.420*[#   7]+0.280*[#   9]+0.140*[#   8]+0.080*[#   3]+0.053*[#   5]
          +0.027*[#   4]
    |psi|^2 = 0.999
==== e(   4) =    -0.47892 eV ==== 
     psi = 0.635*[#   9]+0.238*[#   7]+0.079*[#   8]+0.029*[#   5]+0.011*[#   3]
          +0.004*[#   4]+0.003*[#   2]
    |psi|^2 = 0.999
==== e(   5) =    -0.39024 eV ==== 
     psi = 0.715*[#   8]+0.238*[#   7]+0.034*[#   4]+0.011*[#   3]
    |psi|^2 = 0.999
==== e(   6) =    14.96030 eV ==== 
     psi = 0.410*[#   3]+0.273*[#   5]+0.137*[#   4]+0.079*[#   7]+0.053*[#   9]
          +0.026*[#   8]
    |psi|^2 = 0.978
==== e(   7) =    16.55087 eV ==== 
     psi = 0.219*[#   5]+0.082*[#   3]+0.027*[#   4]+0.009*[#   2]+0.009*[#   9]
          +0.003*[#   7]+0.002*[#   6]+0.001*[#   8]
    |psi|^2 = 0.355
==== e(   8) =    17.54298 eV ==== 
     psi = 0.844*[#   2]+0.029*[#   1]+0.013*[#   6]+0.011*[#   5]+0.004*[#   3]
          +0.001*[#   4]
    |psi|^2 = 0.902
==== e(   9) =    20.21172 eV ==== 
     psi = 0.693*[#   4]+0.231*[#   3]+0.034*[#   8]+0.011*[#   7]
    |psi|^2 = 0.970

 k =   0.3127313958 -0.3402069087  0.5416666667
==== e(   1) =   -40.39474 eV ==== 
     psi = 0.968*[#   1]+0.030*[#   2]
    |psi|^2 = 1.000
==== e(   2) =   -18.70154 eV ==== 
     psi = 0.981*[#   6]+0.013*[#   2]+0.004*[#   5]+0.001*[#   3]
    |psi|^2 = 1.000
==== e(   3) =    -2.25040 eV ==== 
     psi = 0.420*[#   7]+0.280*[#   9]+0.140*[#   8]+0.080*[#   3]+0.053*[#   5]
          +0.027*[#   4]
    |psi|^2 = 0.999
==== e(   4) =    -0.49341 eV ==== 
     psi = 0.635*[#   9]+0.238*[#   7]+0.079*[#   8]+0.029*[#   5]+0.011*[#   3]
          +0.004*[#   4]+0.003*[#   2]
    |psi|^2 = 0.999
==== e(   5) =    -0.38453 eV ==== 
     psi = 0.716*[#   8]+0.239*[#   7]+0.034*[#   4]+0.011*[#   3]
    |psi|^2 = 0.999
==== e(   6) =    14.96202 eV ==== 
     psi = 0.410*[#   3]+0.273*[#   5]+0.137*[#   4]+0.078*[#   7]+0.052*[#   9]
          +0.026*[#   8]
    |psi|^2 = 0.977
==== e(   7) =    16.48644 eV ==== 
     psi = 0.256*[#   5]+0.096*[#   3]+0.032*[#   4]+0.011*[#   9]+0.010*[#   2]
          +0.004*[#   7]+0.003*[#   6]+0.001*[#   8]+0.001*[#   1]
    |psi|^2 = 0.414
==== e(   8) =    17.56539 eV ==== 
     psi = 0.836*[#   2]+0.028*[#   1]+0.013*[#   6]+0.010*[#   5]+0.004*[#   3]
          +0.001*[#   4]
    |psi|^2 = 0.893
==== e(   9) =    20.19817 eV ==== 
     psi = 0.693*[#   4]+0.231*[#   3]+0.034*[#   8]+0.011*[#   7]
    |psi|^2 = 0.969

 k =   0.3151370219 -0.3334027705  0.5458333333
==== e(   1) =   -40.39472 eV ==== 
     psi = 0.968*[#   1]+0.030*[#   2]
    |psi|^2 = 1.000
==== e(   2) =   -18.70226 eV ==== 
     psi = 0.980*[#   6]+0.013*[#   2]+0.004*[#   5]+0.002*[#   3]
    |psi|^2 = 1.000
==== e(   3) =    -2.23868 eV ==== 
     psi = 0.421*[#   7]+0.280*[#   9]+0.140*[#   8]+0.079*[#   3]+0.053*[#   5]
          +0.026*[#   4]
    |psi|^2 = 0.999
==== e(   4) =    -0.50920 eV ==== 
     psi = 0.635*[#   9]+0.238*[#   7]+0.079*[#   8]+0.028*[#   5]+0.011*[#   3]
          +0.004*[#   2]+0.004*[#   4]
    |psi|^2 = 0.999
==== e(   5) =    -0.37824 eV ==== 
     psi = 0.716*[#   8]+0.239*[#   7]+0.033*[#   4]+0.011*[#   3]
    |psi|^2 = 0.999
==== e(   6) =    14.96398 eV ==== 
     psi = 0.410*[#   3]+0.274*[#   5]+0.137*[#   4]+0.078*[#   7]+0.052*[#   9]
          +0.026*[#   8]
    |psi|^2 = 0.976
==== e(   7) =    16.41704 eV ==== 
     psi = 0.292*[#   5]+0.110*[#   3]+0.037*[#   4]+0.012*[#   9]+0.010*[#   2]
          +0.004*[#   7]+0.004*[#   6]+0.001*[#   8]+0.001*[#   1]
    |psi|^2 = 0.471
==== e(   8) =    17.59139 eV ==== 
     psi = 0.830*[#   2]+0.028*[#   1]+0.012*[#   6]+0.009*[#   5]+0.003*[#   3]
          +0.001*[#   4]
    |psi|^2 = 0.885
==== e(   9) =    20.18338 eV ==== 
     psi = 0.693*[#   4]+0.231*[#   3]+0.034*[#   8]+0.011*[#   7]
    |psi|^2 = 0.968

 k =   0.3175426481 -0.3265986324  0.5500000000
==== e(   1) =   -40.39471 eV ==== 
     psi = 0.968*[#   1]+0.030*[#   2]
    |psi|^2 = 1.000
==== e(   2) =   -18.70306 eV ==== 
     psi = 0.980*[#   6]+0.012*[#   2]+0.005*[#   5]+0.002*[#   3]
    |psi|^2 = 1.000
==== e(   3) =    -2.22589 eV ==== 
     psi = 0.421*[#   7]+0.281*[#   9]+0.140*[#   8]+0.078*[#   3]+0.052*[#   5]
          +0.026*[#   4]
    |psi|^2 = 0.999
==== e(   4) =    -0.52622 eV ==== 
     psi = 0.635*[#   9]+0.238*[#   7]+0.079*[#   8]+0.028*[#   5]+0.010*[#   3]
          +0.005*[#   2]+0.003*[#   4]
    |psi|^2 = 0.999
==== e(   5) =    -0.37139 eV ==== 
     psi = 0.716*[#   8]+0.239*[#   7]+0.033*[#   4]+0.011*[#   3]
    |psi|^2 = 0.999
==== e(   6) =    14.96619 eV ==== 
     psi = 0.411*[#   3]+0.274*[#   5]+0.137*[#   4]+0.077*[#   7]+0.051*[#   9]
          +0.026*[#   8]
    |psi|^2 = 0.976
==== e(   7) =    16.34331 eV ==== 
     psi = 0.327*[#   5]+0.123*[#   3]+0.041*[#   4]+0.013*[#   9]+0.009*[#   2]
          +0.005*[#   7]+0.005*[#   6]+0.002*[#   8]+0.001*[#   1]
    |psi|^2 = 0.525
==== e(   8) =    17.62073 eV ==== 
     psi = 0.826*[#   2]+0.028*[#   1]+0.012*[#   6]+0.008*[#   5]+0.003*[#   3]
          +0.001*[#   4]
    |psi|^2 = 0.878
==== e(   9) =    20.16742 eV ==== 
     psi = 0.692*[#   4]+0.231*[#   3]+0.033*[#   8]+0.011*[#   7]
    |psi|^2 = 0.967

 k =   0.3199482742 -0.3197944942  0.5541666667
==== e(   1) =   -40.39470 eV ==== 
     psi = 0.968*[#   1]+0.030*[#   2]
    |psi|^2 = 1.000
==== e(   2) =   -18.70395 eV ==== 
     psi = 0.979*[#   6]+0.012*[#   2]+0.006*[#   5]+0.002*[#   3]
    |psi|^2 = 1.000
==== e(   3) =    -2.21202 eV ==== 
     psi = 0.422*[#   7]+0.281*[#   9]+0.141*[#   8]+0.078*[#   3]+0.052*[#   5]
          +0.026*[#   4]
    |psi|^2 = 0.999
==== e(   4) =    -0.54441 eV ==== 
     psi = 0.635*[#   9]+0.238*[#   7]+0.079*[#   8]+0.027*[#   5]+0.010*[#   3]
          +0.006*[#   2]+0.003*[#   4]
    |psi|^2 = 0.999
==== e(   5) =    -0.36399 eV ==== 
     psi = 0.717*[#   8]+0.239*[#   7]+0.033*[#   4]+0.011*[#   3]
    |psi|^2 = 0.999
==== e(   6) =    14.96866 eV ==== 
     psi = 0.411*[#   3]+0.274*[#   5]+0.137*[#   4]+0.077*[#   7]+0.051*[#   9]
          +0.026*[#   8]
    |psi|^2 = 0.975
==== e(   7) =    16.26586 eV ==== 
     psi = 0.359*[#   5]+0.135*[#   3]+0.045*[#   4]+0.014*[#   9]+0.008*[#   2]
          +0.006*[#   6]+0.005*[#   7]+0.002*[#   8]+0.001*[#   1]
    |psi|^2 = 0.576
==== e(   8) =    17.65318 eV ==== 
     psi = 0.823*[#   2]+0.027*[#   1]+0.011*[#   6]+0.007*[#   5]+0.003*[#   3]
          +0.001*[#   9]
    |psi|^2 = 0.874
==== e(   9) =    20.15033 eV ==== 
     psi = 0.692*[#   4]+0.231*[#   3]+0.033*[#   8]+0.011*[#   7]
    |psi|^2 = 0.966

 k =   0.3223539003 -0.3129903560  0.5583333333
==== e(   1) =   -40.39468 eV ==== 
     psi = 0.968*[#   1]+0.029*[#   2]
    |psi|^2 = 1.000
==== e(   2) =   -18.70493 eV ==== 
     psi = 0.979*[#   6]+0.011*[#   2]+0.006*[#   5]+0.002*[#   3]
    |psi|^2 = 1.000
==== e(   3) =    -2.19710 eV ==== 
     psi = 0.423*[#   7]+0.282*[#   9]+0.141*[#   8]+0.077*[#   3]+0.051*[#   5]
          +0.026*[#   4]
    |psi|^2 = 0.999
==== e(   4) =    -0.56368 eV ==== 
     psi = 0.634*[#   9]+0.238*[#   7]+0.079*[#   8]+0.027*[#   5]+0.010*[#   3]
          +0.006*[#   2]+0.003*[#   4]
    |psi|^2 = 0.999
==== e(   5) =    -0.35604 eV ==== 
     psi = 0.717*[#   8]+0.239*[#   7]+0.032*[#   4]+0.011*[#   3]
    |psi|^2 = 0.999
==== e(   6) =    14.97142 eV ==== 
     psi = 0.411*[#   3]+0.274*[#   5]+0.137*[#   4]+0.076*[#   7]+0.051*[#   9]
          +0.025*[#   8]
    |psi|^2 = 0.974
==== e(   7) =    16.18524 eV ==== 
     psi = 0.389*[#   5]+0.146*[#   3]+0.049*[#   4]+0.015*[#   9]+0.007*[#   2]
          +0.006*[#   6]+0.006*[#   7]+0.002*[#   8]+0.001*[#   1]
    |psi|^2 = 0.622
==== e(   8) =    17.68849 eV ==== 
     psi = 0.821*[#   2]+0.027*[#   1]+0.011*[#   6]+0.007*[#   5]+0.002*[#   3]
          +0.001*[#   9]
    |psi|^2 = 0.872
==== e(   9) =    20.13219 eV ==== 
     psi = 0.692*[#   4]+0.231*[#   3]+0.033*[#   8]+0.011*[#   7]
    |psi|^2 = 0.966

 k =   0.3247595264 -0.3061862179  0.5625000000
==== e(   1) =   -40.39468 eV ==== 
     psi = 0.968*[#   1]+0.029*[#   2]
    |psi|^2 = 1.000
==== e(   2) =   -18.70600 eV ==== 
     psi = 0.978*[#   6]+0.011*[#   2]+0.007*[#   5]+0.003*[#   3]
    |psi|^2 = 1.000
==== e(   3) =    -2.18113 eV ==== 
     psi = 0.423*[#   7]+0.282*[#   9]+0.141*[#   8]+0.076*[#   3]+0.051*[#   5]
          +0.025*[#   4]
    |psi|^2 = 0.999
==== e(   4) =    -0.58397 eV ==== 
     psi = 0.634*[#   9]+0.238*[#   7]+0.079*[#   8]+0.026*[#   5]+0.010*[#   3]
          +0.007*[#   2]+0.003*[#   4]
    |psi|^2 = 0.999
==== e(   5) =    -0.34756 eV ==== 
     psi = 0.717*[#   8]+0.239*[#   7]+0.032*[#   4]+0.011*[#   3]
    |psi|^2 = 0.999
==== e(   6) =    14.97449 eV ==== 
     psi = 0.412*[#   3]+0.274*[#   5]+0.137*[#   4]+0.075*[#   7]+0.050*[#   9]
          +0.025*[#   8]
    |psi|^2 = 0.973
==== e(   7) =    16.10195 eV ==== 
     psi = 0.417*[#   5]+0.156*[#   3]+0.052*[#   4]+0.016*[#   9]+0.007*[#   6]
          +0.006*[#   7]+0.005*[#   2]+0.002*[#   8]+0.001*[#   1]
    |psi|^2 = 0.664
==== e(   8) =    17.72640 eV ==== 
     psi = 0.821*[#   2]+0.027*[#   1]+0.011*[#   6]+0.006*[#   5]+0.002*[#   3]
          +0.002*[#   9]
    |psi|^2 = 0.871
==== e(   9) =    20.11305 eV ==== 
     psi = 0.691*[#   4]+0.230*[#   3]+0.032*[#   8]+0.011*[#   7]
    |psi|^2 = 0.965

 k =   0.3271651525 -0.2993820797  0.5666666667
==== e(   1) =   -40.39467 eV ==== 
     psi = 0.968*[#   1]+0.029*[#   2]
    |psi|^2 = 1.000
==== e(   2) =   -18.70716 eV ==== 
     psi = 0.978*[#   6]+0.010*[#   2]+0.008*[#   5]+0.003*[#   3]
    |psi|^2 = 1.000
==== e(   3) =    -2.16412 eV ==== 
     psi = 0.424*[#   7]+0.283*[#   9]+0.141*[#   8]+0.075*[#   3]+0.050*[#   5]
          +0.025*[#   4]
    |psi|^2 = 0.999
==== e(   4) =    -0.60519 eV ==== 
     psi = 0.634*[#   9]+0.238*[#   7]+0.079*[#   8]+0.026*[#   5]+0.010*[#   3]
          +0.008*[#   2]+0.003*[#   4]
    |psi|^2 = 0.999
==== e(   5) =    -0.33857 eV ==== 
     psi = 0.718*[#   8]+0.239*[#   7]+0.032*[#   4]+0.011*[#   3]
    |psi|^2 = 0.999
==== e(   6) =    14.97788 eV ==== 
     psi = 0.412*[#   3]+0.275*[#   5]+0.137*[#   4]+0.074*[#   7]+0.049*[#   9]
          +0.025*[#   8]
    |psi|^2 = 0.973
==== e(   7) =    16.01645 eV ==== 
     psi = 0.442*[#   5]+0.166*[#   3]+0.055*[#   4]+0.017*[#   9]+0.008*[#   6]
          +0.006*[#   7]+0.004*[#   2]+0.002*[#   8]+0.001*[#   1]
    |psi|^2 = 0.702
==== e(   8) =    17.76662 eV ==== 
     psi = 0.823*[#   2]+0.027*[#   1]+0.010*[#   6]+0.006*[#   5]+0.002*[#   9]
          +0.002*[#   3]
    |psi|^2 = 0.872
==== e(   9) =    20.09300 eV ==== 
     psi = 0.691*[#   4]+0.230*[#   3]+0.032*[#   8]+0.011*[#   7]
    |psi|^2 = 0.964

 k =   0.3295707787 -0.2925779415  0.5708333333
==== e(   1) =   -40.39469 eV ==== 
     psi = 0.968*[#   1]+0.029*[#   2]
    |psi|^2 = 1.000
==== e(   2) =   -18.70843 eV ==== 
     psi = 0.977*[#   6]+0.010*[#   2]+0.008*[#   5]+0.003*[#   3]+0.001*[#   4]
          
    |psi|^2 = 1.000
==== e(   3) =    -2.14610 eV ==== 
     psi = 0.425*[#   7]+0.283*[#   9]+0.142*[#   8]+0.075*[#   3]+0.050*[#   5]
          +0.025*[#   4]
    |psi|^2 = 0.999
==== e(   4) =    -0.62727 eV ==== 
     psi = 0.634*[#   9]+0.238*[#   7]+0.079*[#   8]+0.025*[#   5]+0.010*[#   3]
          +0.009*[#   2]+0.003*[#   4]
    |psi|^2 = 0.999
==== e(   5) =    -0.32907 eV ==== 
     psi = 0.718*[#   8]+0.239*[#   7]+0.031*[#   4]+0.010*[#   3]
    |psi|^2 = 0.999
==== e(   6) =    14.98161 eV ==== 
     psi = 0.413*[#   3]+0.275*[#   5]+0.138*[#   4]+0.073*[#   7]+0.049*[#   9]
          +0.024*[#   8]
    |psi|^2 = 0.972
==== e(   7) =    15.92912 eV ==== 
     psi = 0.464*[#   5]+0.174*[#   3]+0.058*[#   4]+0.018*[#   9]+0.009*[#   6]
          +0.007*[#   7]+0.002*[#   2]+0.002*[#   8]+0.001*[#   1]
    |psi|^2 = 0.736
==== e(   8) =    17.80889 eV ==== 
     psi = 0.825*[#   2]+0.027*[#   1]+0.010*[#   6]+0.005*[#   5]+0.003*[#   9]
          +0.002*[#   3]
    |psi|^2 = 0.873
==== e(   9) =    20.07211 eV ==== 
     psi = 0.691*[#   4]+0.230*[#   3]+0.031*[#   8]+0.010*[#   7]
    |psi|^2 = 0.963

 k =   0.3319764048 -0.2857738033  0.5750000000
==== e(   1) =   -40.39467 eV ==== 
     psi = 0.969*[#   1]+0.028*[#   2]
    |psi|^2 = 1.000
==== e(   2) =   -18.70980 eV ==== 
     psi = 0.977*[#   6]+0.009*[#   2]+0.009*[#   5]+0.003*[#   3]+0.001*[#   4]
          
    |psi|^2 = 1.000
==== e(   3) =    -2.12706 eV ==== 
     psi = 0.426*[#   7]+0.284*[#   9]+0.142*[#   8]+0.074*[#   3]+0.049*[#   5]
          +0.025*[#   4]
    |psi|^2 = 0.999
==== e(   4) =    -0.65011 eV ==== 
     psi = 0.634*[#   9]+0.238*[#   7]+0.079*[#   8]+0.025*[#   5]+0.010*[#   2]
          +0.009*[#   3]+0.003*[#   4]
    |psi|^2 = 0.999
==== e(   5) =    -0.31907 eV ==== 
     psi = 0.719*[#   8]+0.240*[#   7]+0.031*[#   4]+0.010*[#   3]
    |psi|^2 = 0.999
==== e(   6) =    14.98573 eV ==== 
     psi = 0.413*[#   3]+0.275*[#   5]+0.138*[#   4]+0.073*[#   7]+0.048*[#   9]
          +0.024*[#   8]
    |psi|^2 = 0.971
==== e(   7) =    15.84031 eV ==== 
     psi = 0.484*[#   5]+0.181*[#   3]+0.060*[#   4]+0.019*[#   9]+0.010*[#   6]
          +0.007*[#   7]+0.002*[#   8]+0.001*[#   2]+0.001*[#   1]
    |psi|^2 = 0.766
==== e(   8) =    17.85302 eV ==== 
     psi = 0.827*[#   2]+0.027*[#   1]+0.010*[#   6]+0.005*[#   5]+0.003*[#   9]
          +0.002*[#   3]+0.001*[#   7]
    |psi|^2 = 0.876
==== e(   9) =    20.05046 eV ==== 
     psi = 0.690*[#   4]+0.230*[#   3]+0.031*[#   8]+0.010*[#   7]
    |psi|^2 = 0.962

 k =   0.3343820309 -0.2789696652  0.5791666667
==== e(   1) =   -40.39468 eV ==== 
     psi = 0.969*[#   1]+0.028*[#   2]
    |psi|^2 = 1.000
==== e(   2) =   -18.71128 eV ==== 
     psi = 0.976*[#   6]+0.010*[#   5]+0.009*[#   2]+0.004*[#   3]+0.001*[#   4]
          
    |psi|^2 = 1.000
==== e(   3) =    -2.10703 eV ==== 
     psi = 0.427*[#   7]+0.284*[#   9]+0.142*[#   8]+0.073*[#   3]+0.049*[#   5]
          +0.024*[#   4]
    |psi|^2 = 0.999
==== e(   4) =    -0.67363 eV ==== 
     psi = 0.634*[#   9]+0.238*[#   7]+0.079*[#   8]+0.024*[#   5]+0.011*[#   2]
          +0.009*[#   3]+0.003*[#   4]
    |psi|^2 = 0.999
==== e(   5) =    -0.30859 eV ==== 
     psi = 0.719*[#   8]+0.240*[#   7]+0.030*[#   4]+0.010*[#   3]
    |psi|^2 = 0.999
==== e(   6) =    14.99024 eV ==== 
     psi = 0.413*[#   3]+0.276*[#   5]+0.138*[#   4]+0.072*[#   7]+0.048*[#   9]
          +0.024*[#   8]
    |psi|^2 = 0.970
==== e(   7) =    15.75031 eV ==== 
     psi = 0.501*[#   5]+0.188*[#   3]+0.063*[#   4]+0.020*[#   9]+0.011*[#   6]
          +0.007*[#   7]+0.002*[#   8]
    |psi|^2 = 0.793
==== e(   8) =    17.89869 eV ==== 
     psi = 0.831*[#   2]+0.027*[#   1]+0.009*[#   6]+0.006*[#   5]+0.003*[#   9]
          +0.002*[#   3]+0.001*[#   7]
    |psi|^2 = 0.880
==== e(   9) =    20.02812 eV ==== 
     psi = 0.690*[#   4]+0.230*[#   3]+0.030*[#   8]+0.010*[#   7]
    |psi|^2 = 0.960

 k =   0.3367876570 -0.2721655270  0.5833333333
==== e(   1) =   -40.39469 eV ==== 
     psi = 0.969*[#   1]+0.028*[#   2]
    |psi|^2 = 1.000
==== e(   2) =   -18.71287 eV ==== 
     psi = 0.975*[#   6]+0.011*[#   5]+0.008*[#   2]+0.004*[#   3]+0.001*[#   4]
          
    |psi|^2 = 1.000
==== e(   3) =    -2.08602 eV ==== 
     psi = 0.428*[#   7]+0.285*[#   9]+0.143*[#   8]+0.072*[#   3]+0.048*[#   5]
          +0.024*[#   4]
    |psi|^2 = 0.999
==== e(   4) =    -0.69775 eV ==== 
     psi = 0.633*[#   9]+0.237*[#   7]+0.079*[#   8]+0.024*[#   5]+0.012*[#   2]
          +0.009*[#   3]+0.003*[#   4]
    |psi|^2 = 0.999
==== e(   5) =    -0.29765 eV ==== 
     psi = 0.719*[#   8]+0.240*[#   7]+0.030*[#   4]+0.010*[#   3]
    |psi|^2 = 0.999
==== e(   6) =    14.99518 eV ==== 
     psi = 0.414*[#   3]+0.276*[#   5]+0.138*[#   4]+0.071*[#   7]+0.047*[#   9]
          +0.024*[#   8]
    |psi|^2 = 0.969
==== e(   7) =    15.65938 eV ==== 
     psi = 0.516*[#   5]+0.193*[#   3]+0.064*[#   4]+0.020*[#   9]+0.012*[#   6]
          +0.008*[#   7]+0.003*[#   8]
    |psi|^2 = 0.817
==== e(   8) =    17.94569 eV ==== 
     psi = 0.834*[#   2]+0.027*[#   1]+0.009*[#   6]+0.006*[#   5]+0.004*[#   9]
          +0.002*[#   3]+0.001*[#   7]
    |psi|^2 = 0.884
==== e(   9) =    20.00518 eV ==== 
     psi = 0.690*[#   4]+0.230*[#   3]+0.030*[#   8]+0.010*[#   7]
    |psi|^2 = 0.959

 k =   0.3391932831 -0.2653613888  0.5875000000
==== e(   1) =   -40.39470 eV ==== 
     psi = 0.969*[#   1]+0.028*[#   2]+0.001*[#   9]
    |psi|^2 = 1.000
==== e(   2) =   -18.71458 eV ==== 
     psi = 0.975*[#   6]+0.011*[#   5]+0.008*[#   2]+0.004*[#   3]+0.001*[#   4]
          
    |psi|^2 = 1.000
==== e(   3) =    -2.06406 eV ==== 
     psi = 0.429*[#   7]+0.286*[#   9]+0.143*[#   8]+0.071*[#   3]+0.047*[#   5]
          +0.024*[#   4]
    |psi|^2 = 0.999
==== e(   4) =    -0.72237 eV ==== 
     psi = 0.633*[#   9]+0.237*[#   7]+0.079*[#   8]+0.023*[#   5]+0.013*[#   2]
          +0.009*[#   3]+0.003*[#   4]
    |psi|^2 = 0.999
==== e(   5) =    -0.28626 eV ==== 
     psi = 0.720*[#   8]+0.240*[#   7]+0.029*[#   4]+0.010*[#   3]
    |psi|^2 = 0.999
==== e(   6) =    15.00058 eV ==== 
     psi = 0.414*[#   3]+0.276*[#   5]+0.138*[#   4]+0.070*[#   7]+0.047*[#   9]
          +0.023*[#   8]
    |psi|^2 = 0.968
==== e(   7) =    15.56776 eV ==== 
     psi = 0.529*[#   5]+0.198*[#   3]+0.066*[#   4]+0.021*[#   9]+0.013*[#   6]
          +0.008*[#   7]+0.003*[#   8]
    |psi|^2 = 0.838
==== e(   8) =    17.99380 eV ==== 
     psi = 0.838*[#   2]+0.027*[#   1]+0.009*[#   6]+0.006*[#   5]+0.004*[#   9]
          +0.002*[#   3]+0.002*[#   7]
    |psi|^2 = 0.889
==== e(   9) =    19.98172 eV ==== 
     psi = 0.689*[#   4]+0.230*[#   3]+0.029*[#   8]+0.010*[#   7]
    |psi|^2 = 0.958

 k =   0.3415989093 -0.2585572506  0.5916666667
==== e(   1) =   -40.39472 eV ==== 
     psi = 0.969*[#   1]+0.028*[#   2]+0.001*[#   9]
    |psi|^2 = 1.000
==== e(   2) =   -18.71642 eV ==== 
     psi = 0.974*[#   6]+0.012*[#   5]+0.007*[#   2]+0.005*[#   3]+0.002*[#   4]
          
    |psi|^2 = 1.000
==== e(   3) =    -2.04115 eV ==== 
     psi = 0.430*[#   7]+0.286*[#   9]+0.143*[#   8]+0.070*[#   3]+0.047*[#   5]
          +0.023*[#   4]
    |psi|^2 = 0.999
==== e(   4) =    -0.74740 eV ==== 
     psi = 0.633*[#   9]+0.237*[#   7]+0.079*[#   8]+0.023*[#   5]+0.014*[#   2]
          +0.009*[#   3]+0.003*[#   4]
    |psi|^2 = 0.999
==== e(   5) =    -0.27444 eV ==== 
     psi = 0.720*[#   8]+0.240*[#   7]+0.029*[#   4]+0.010*[#   3]
    |psi|^2 = 0.999
==== e(   6) =    15.00647 eV ==== 
     psi = 0.415*[#   3]+0.277*[#   5]+0.138*[#   4]+0.069*[#   7]+0.046*[#   9]
          +0.023*[#   8]
    |psi|^2 = 0.967
==== e(   7) =    15.47563 eV ==== 
     psi = 0.539*[#   5]+0.202*[#   3]+0.067*[#   4]+0.021*[#   9]+0.014*[#   6]
          +0.008*[#   7]+0.003*[#   8]
    |psi|^2 = 0.856
==== e(   8) =    18.04279 eV ==== 
     psi = 0.842*[#   2]+0.027*[#   1]+0.008*[#   6]+0.007*[#   5]+0.005*[#   9]
          +0.003*[#   3]+0.002*[#   7]
    |psi|^2 = 0.894
==== e(   9) =    19.95785 eV ==== 
     psi = 0.689*[#   4]+0.230*[#   3]+0.029*[#   8]+0.010*[#   7]
    |psi|^2 = 0.957

 k =   0.3440045354 -0.2517531125  0.5958333333
==== e(   1) =   -40.39475 eV ==== 
     psi = 0.969*[#   1]+0.027*[#   2]+0.001*[#   9]
    |psi|^2 = 1.000
==== e(   2) =   -18.71838 eV ==== 
     psi = 0.974*[#   6]+0.013*[#   5]+0.007*[#   2]+0.005*[#   3]+0.002*[#   4]
          
    |psi|^2 = 1.000
==== e(   3) =    -2.01732 eV ==== 
     psi = 0.431*[#   7]+0.287*[#   9]+0.144*[#   8]+0.069*[#   3]+0.046*[#   5]
          +0.023*[#   4]
    |psi|^2 = 0.999
==== e(   4) =    -0.77275 eV ==== 
     psi = 0.632*[#   9]+0.237*[#   7]+0.079*[#   8]+0.023*[#   5]+0.015*[#   2]
          +0.009*[#   3]+0.003*[#   4]
    |psi|^2 = 0.999
==== e(   5) =    -0.26220 eV ==== 
     psi = 0.721*[#   8]+0.240*[#   7]+0.028*[#   4]+0.009*[#   3]
    |psi|^2 = 0.999
==== e(   6) =    15.01287 eV ==== 
     psi = 0.415*[#   3]+0.277*[#   5]+0.138*[#   4]+0.068*[#   7]+0.045*[#   9]
          +0.023*[#   8]
    |psi|^2 = 0.966
==== e(   7) =    15.38318 eV ==== 
     psi = 0.548*[#   5]+0.206*[#   3]+0.069*[#   4]+0.022*[#   9]+0.014*[#   6]
          +0.008*[#   7]+0.003*[#   8]+0.002*[#   2]
    |psi|^2 = 0.872
==== e(   8) =    18.09242 eV ==== 
     psi = 0.846*[#   2]+0.027*[#   1]+0.008*[#   6]+0.007*[#   5]+0.005*[#   9]
          +0.003*[#   3]+0.002*[#   7]
    |psi|^2 = 0.899
==== e(   9) =    19.93363 eV ==== 
     psi = 0.689*[#   4]+0.230*[#   3]+0.028*[#   8]+0.009*[#   7]
    |psi|^2 = 0.956

 k =   0.3464101615 -0.2449489743  0.6000000000
==== e(   1) =   -40.39480 eV ==== 
     psi = 0.969*[#   1]+0.027*[#   2]+0.001*[#   9]
    |psi|^2 = 1.000
==== e(   2) =   -18.72048 eV ==== 
     psi = 0.973*[#   6]+0.014*[#   5]+0.006*[#   2]+0.005*[#   3]+0.002*[#   4]
          
    |psi|^2 = 1.000
==== e(   3) =    -1.99258 eV ==== 
     psi = 0.432*[#   7]+0.288*[#   9]+0.144*[#   8]+0.068*[#   3]+0.045*[#   5]
          +0.023*[#   4]
    |psi|^2 = 0.999
==== e(   4) =    -0.79834 eV ==== 
     psi = 0.632*[#   9]+0.237*[#   7]+0.079*[#   8]+0.022*[#   5]+0.016*[#   2]
          +0.008*[#   3]+0.003*[#   4]
    |psi|^2 = 0.999
==== e(   5) =    -0.24957 eV ==== 
     psi = 0.722*[#   8]+0.241*[#   7]+0.027*[#   4]+0.009*[#   3]
    |psi|^2 = 0.999
==== e(   6) =    15.01982 eV ==== 
     psi = 0.416*[#   3]+0.277*[#   5]+0.139*[#   4]+0.067*[#   7]+0.045*[#   9]
          +0.022*[#   8]
    |psi|^2 = 0.965
==== e(   7) =    15.29055 eV ==== 
     psi = 0.556*[#   5]+0.208*[#   3]+0.069*[#   4]+0.023*[#   9]+0.015*[#   6]
          +0.008*[#   7]+0.003*[#   2]+0.003*[#   8]
    |psi|^2 = 0.886
==== e(   8) =    18.14250 eV ==== 
     psi = 0.849*[#   2]+0.027*[#   1]+0.008*[#   5]+0.008*[#   6]+0.005*[#   9]
          +0.003*[#   3]+0.002*[#   7]+0.001*[#   4]
    |psi|^2 = 0.904
==== e(   9) =    19.90917 eV ==== 
     psi = 0.688*[#   4]+0.229*[#   3]+0.028*[#   8]+0.009*[#   7]
    |psi|^2 = 0.955

 k =   0.3488157876 -0.2381448361  0.6041666667
==== e(   1) =   -40.39485 eV ==== 
     psi = 0.969*[#   1]+0.027*[#   2]+0.001*[#   9]
    |psi|^2 = 1.000
==== e(   2) =   -18.72272 eV ==== 
     psi = 0.973*[#   6]+0.014*[#   5]+0.006*[#   2]+0.005*[#   3]+0.002*[#   4]
          
    |psi|^2 = 1.000
==== e(   3) =    -1.96696 eV ==== 
     psi = 0.433*[#   7]+0.288*[#   9]+0.144*[#   8]+0.067*[#   3]+0.045*[#   5]
          +0.022*[#   4]
    |psi|^2 = 0.999
==== e(   4) =    -0.82407 eV ==== 
     psi = 0.631*[#   9]+0.237*[#   7]+0.079*[#   8]+0.022*[#   5]+0.017*[#   2]
          +0.008*[#   3]+0.003*[#   4]
    |psi|^2 = 0.999
==== e(   5) =    -0.23656 eV ==== 
     psi = 0.722*[#   8]+0.241*[#   7]+0.027*[#   4]+0.009*[#   3]
    |psi|^2 = 0.999
==== e(   6) =    15.02736 eV ==== 
     psi = 0.416*[#   3]+0.278*[#   5]+0.139*[#   4]+0.066*[#   7]+0.044*[#   9]
          +0.022*[#   8]
    |psi|^2 = 0.964
==== e(   7) =    15.19789 eV ==== 
     psi = 0.561*[#   5]+0.211*[#   3]+0.070*[#   4]+0.023*[#   9]+0.016*[#   6]
          +0.009*[#   7]+0.005*[#   2]+0.003*[#   8]
    |psi|^2 = 0.898
==== e(   8) =    18.19283 eV ==== 
     psi = 0.853*[#   2]+0.027*[#   1]+0.009*[#   5]+0.008*[#   6]+0.006*[#   9]
          +0.003*[#   3]+0.002*[#   7]+0.001*[#   4]
    |psi|^2 = 0.909
==== e(   9) =    19.88456 eV ==== 
     psi = 0.688*[#   4]+0.229*[#   3]+0.027*[#   8]+0.009*[#   7]
    |psi|^2 = 0.953

 k =   0.3512214138 -0.2313406979  0.6083333333
==== e(   1) =   -40.39491 eV ==== 
     psi = 0.969*[#   1]+0.027*[#   2]+0.002*[#   9]
    |psi|^2 = 1.000
==== e(   2) =   -18.72509 eV ==== 
     psi = 0.972*[#   6]+0.015*[#   5]+0.006*[#   3]+0.005*[#   2]+0.002*[#   4]
          
    |psi|^2 = 1.000
==== e(   3) =    -1.94048 eV ==== 
     psi = 0.434*[#   7]+0.289*[#   9]+0.145*[#   8]+0.066*[#   3]+0.044*[#   5]
          +0.022*[#   4]
    |psi|^2 = 0.999
==== e(   4) =    -0.84986 eV ==== 
     psi = 0.631*[#   9]+0.237*[#   7]+0.079*[#   8]+0.022*[#   5]+0.018*[#   2]
          +0.008*[#   3]+0.003*[#   4]+0.001*[#   1]
    |psi|^2 = 0.999
==== e(   5) =    -0.22318 eV ==== 
     psi = 0.723*[#   8]+0.241*[#   7]+0.026*[#   4]+0.009*[#   3]
    |psi|^2 = 0.999
==== e(   6) =    15.03552 eV ==== 
     psi = 0.417*[#   3]+0.278*[#   5]+0.139*[#   4]+0.065*[#   7]+0.043*[#   9]
          +0.022*[#   8]
    |psi|^2 = 0.964
==== e(   7) =    15.10530 eV ==== 
[...]
     psi = 0.969*[#   1]+0.028*[#   2]
    |psi|^2 = 1.000
==== e(   2) =   -18.70741 eV ==== 
     psi = 0.974*[#   6]+0.009*[#   2]+0.008*[#   3]+0.006*[#   5]+0.003*[#   4]
          
    |psi|^2 = 1.000
==== e(   3) =    -2.12020 eV ==== 
     psi = 0.426*[#   7]+0.284*[#   9]+0.142*[#   8]+0.073*[#   3]+0.049*[#   5]
          +0.024*[#   4]
    |psi|^2 = 0.999
==== e(   4) =    -0.65437 eV ==== 
     psi = 0.628*[#   8]+0.314*[#   9]+0.038*[#   4]+0.019*[#   5]
    |psi|^2 = 0.999
==== e(   5) =    -0.34412 eV ==== 
     psi = 0.482*[#   7]+0.322*[#   9]+0.161*[#   8]+0.012*[#   3]+0.009*[#   2]
          +0.008*[#   5]+0.004*[#   4]
    |psi|^2 = 0.999
==== e(   6) =    14.98624 eV ==== 
     psi = 0.415*[#   3]+0.276*[#   5]+0.138*[#   4]+0.072*[#   7]+0.048*[#   9]
          +0.024*[#   8]
    |psi|^2 = 0.973
==== e(   7) =    16.12823 eV ==== 
     psi = 0.446*[#   4]+0.223*[#   5]+0.026*[#   8]+0.013*[#   9]
    |psi|^2 = 0.709
==== e(   8) =    17.50959 eV ==== 
     psi = 0.580*[#   2]+0.156*[#   3]+0.104*[#   5]+0.052*[#   4]+0.024*[#   1]
          +0.020*[#   6]
    |psi|^2 = 0.937
==== e(   9) =    19.85158 eV ==== 
     psi = 0.327*[#   2]+0.295*[#   3]+0.197*[#   5]+0.098*[#   4]+0.016*[#   7]
          +0.011*[#   9]+0.005*[#   8]+0.005*[#   1]+0.002*[#   6]
    |psi|^2 = 0.957

 k =   0.2309401077 -0.3265986324  0.6000000000
==== e(   1) =   -40.39457 eV ==== 
     psi = 0.968*[#   1]+0.029*[#   2]
    |psi|^2 = 1.000
==== e(   2) =   -18.70626 eV ==== 
     psi = 0.975*[#   6]+0.010*[#   2]+0.007*[#   3]+0.005*[#   5]+0.002*[#   4]
          
    |psi|^2 = 1.000
==== e(   3) =    -2.14718 eV ==== 
     psi = 0.425*[#   7]+0.283*[#   9]+0.142*[#   8]+0.075*[#   3]+0.050*[#   5]
          +0.025*[#   4]
    |psi|^2 = 0.999
==== e(   4) =    -0.62066 eV ==== 
     psi = 0.629*[#   8]+0.315*[#   9]+0.037*[#   4]+0.018*[#   5]
    |psi|^2 = 0.999
==== e(   5) =    -0.35321 eV ==== 
     psi = 0.482*[#   7]+0.321*[#   9]+0.161*[#   8]+0.013*[#   3]+0.009*[#   5]
          +0.008*[#   2]+0.004*[#   4]
    |psi|^2 = 0.999
==== e(   6) =    14.98065 eV ==== 
     psi = 0.414*[#   3]+0.276*[#   5]+0.138*[#   4]+0.073*[#   7]+0.049*[#   9]
          +0.024*[#   8]
    |psi|^2 = 0.974
==== e(   7) =    16.20041 eV ==== 
     psi = 0.418*[#   4]+0.209*[#   5]+0.024*[#   8]+0.012*[#   9]
    |psi|^2 = 0.663
==== e(   8) =    17.50549 eV ==== 
     psi = 0.624*[#   2]+0.136*[#   3]+0.091*[#   5]+0.045*[#   4]+0.025*[#   1]
          +0.019*[#   6]
    |psi|^2 = 0.940
==== e(   9) =    19.90410 eV ==== 
     psi = 0.318*[#   3]+0.284*[#   2]+0.212*[#   5]+0.106*[#   4]+0.017*[#   7]
          +0.011*[#   9]+0.006*[#   8]+0.004*[#   1]+0.002*[#   6]
    |psi|^2 = 0.959

 k =   0.2357513599 -0.3334027705  0.5916666667
==== e(   1) =   -40.39460 eV ==== 
     psi = 0.968*[#   1]+0.029*[#   2]
    |psi|^2 = 1.000
==== e(   2) =   -18.70513 eV ==== 
     psi = 0.977*[#   6]+0.010*[#   2]+0.006*[#   3]+0.004*[#   5]+0.002*[#   4]
          
    |psi|^2 = 1.000
==== e(   3) =    -2.17218 eV ==== 
     psi = 0.424*[#   7]+0.283*[#   9]+0.141*[#   8]+0.076*[#   3]+0.050*[#   5]
          +0.025*[#   4]
    |psi|^2 = 0.999
==== e(   4) =    -0.58914 eV ==== 
     psi = 0.630*[#   8]+0.315*[#   9]+0.036*[#   4]+0.018*[#   5]
    |psi|^2 = 0.999
==== e(   5) =    -0.36198 eV ==== 
     psi = 0.481*[#   7]+0.321*[#   9]+0.160*[#   8]+0.015*[#   3]+0.010*[#   5]
          +0.007*[#   2]+0.005*[#   4]
    |psi|^2 = 0.999
==== e(   6) =    14.97574 eV ==== 
     psi = 0.413*[#   3]+0.275*[#   5]+0.138*[#   4]+0.075*[#   7]+0.050*[#   9]
          +0.025*[#   8]
    |psi|^2 = 0.975
==== e(   7) =    16.27343 eV ==== 
     psi = 0.386*[#   4]+0.193*[#   5]+0.021*[#   8]+0.011*[#   9]
    |psi|^2 = 0.612
==== e(   8) =    17.50165 eV ==== 
     psi = 0.666*[#   2]+0.116*[#   3]+0.078*[#   5]+0.039*[#   4]+0.026*[#   1]
          +0.018*[#   6]
    |psi|^2 = 0.943
==== e(   9) =    19.95513 eV ==== 
     psi = 0.339*[#   3]+0.242*[#   2]+0.226*[#   5]+0.113*[#   4]+0.018*[#   7]
          +0.012*[#   9]+0.006*[#   8]+0.003*[#   1]+0.002*[#   6]
    |psi|^2 = 0.961

 k =   0.2405626122 -0.3402069087  0.5833333333
==== e(   1) =   -40.39463 eV ==== 
     psi = 0.968*[#   1]+0.029*[#   2]
    |psi|^2 = 1.000
==== e(   2) =   -18.70406 eV ==== 
     psi = 0.978*[#   6]+0.011*[#   2]+0.005*[#   3]+0.004*[#   5]+0.002*[#   4]
          
    |psi|^2 = 1.000
==== e(   3) =    -2.19516 eV ==== 
     psi = 0.423*[#   7]+0.282*[#   9]+0.141*[#   8]+0.077*[#   3]+0.051*[#   5]
          +0.026*[#   4]
    |psi|^2 = 0.999
==== e(   4) =    -0.55993 eV ==== 
     psi = 0.631*[#   8]+0.315*[#   9]+0.035*[#   4]+0.018*[#   5]
    |psi|^2 = 0.999
==== e(   5) =    -0.37034 eV ==== 
     psi = 0.480*[#   7]+0.320*[#   9]+0.160*[#   8]+0.016*[#   3]+0.011*[#   5]
          +0.006*[#   2]+0.005*[#   4]
    |psi|^2 = 0.999
==== e(   6) =    14.97144 eV ==== 
     psi = 0.412*[#   3]+0.275*[#   5]+0.137*[#   4]+0.076*[#   7]+0.050*[#   9]
          +0.025*[#   8]
    |psi|^2 = 0.975
==== e(   7) =    16.34665 eV ==== 
     psi = 0.351*[#   4]+0.175*[#   5]+0.019*[#   8]+0.009*[#   9]
    |psi|^2 = 0.554
==== e(   8) =    17.49808 eV ==== 
     psi = 0.705*[#   2]+0.098*[#   3]+0.065*[#   5]+0.033*[#   4]+0.027*[#   1]
          +0.018*[#   6]
    |psi|^2 = 0.945
==== e(   9) =    20.00409 eV ==== 
     psi = 0.359*[#   3]+0.239*[#   5]+0.203*[#   2]+0.120*[#   4]+0.019*[#   7]
          +0.012*[#   9]+0.006*[#   8]+0.003*[#   1]+0.002*[#   6]
    |psi|^2 = 0.962

 k =   0.2453738644 -0.3470110469  0.5750000000
==== e(   1) =   -40.39467 eV ==== 
     psi = 0.968*[#   1]+0.030*[#   2]
    |psi|^2 = 1.000
==== e(   2) =   -18.70306 eV ==== 
     psi = 0.979*[#   6]+0.012*[#   2]+0.004*[#   3]+0.003*[#   5]+0.001*[#   4]
          
    |psi|^2 = 1.000
==== e(   3) =    -2.21609 eV ==== 
     psi = 0.422*[#   7]+0.281*[#   9]+0.141*[#   8]+0.078*[#   3]+0.052*[#   5]
          +0.026*[#   4]
    |psi|^2 = 0.999
==== e(   4) =    -0.53314 eV ==== 
     psi = 0.632*[#   8]+0.316*[#   9]+0.034*[#   4]+0.017*[#   5]
    |psi|^2 = 0.999
==== e(   5) =    -0.37820 eV ==== 
     psi = 0.480*[#   7]+0.320*[#   9]+0.160*[#   8]+0.017*[#   3]+0.011*[#   5]
          +0.006*[#   4]+0.005*[#   2]
    |psi|^2 = 0.999
==== e(   6) =    14.96771 eV ==== 
     psi = 0.411*[#   3]+0.274*[#   5]+0.137*[#   4]+0.077*[#   7]+0.051*[#   9]
          +0.026*[#   8]
    |psi|^2 = 0.976
==== e(   7) =    16.41927 eV ==== 
     psi = 0.311*[#   4]+0.156*[#   5]+0.016*[#   8]+0.008*[#   9]
    |psi|^2 = 0.492
==== e(   8) =    17.49478 eV ==== 
     psi = 0.742*[#   2]+0.080*[#   3]+0.054*[#   5]+0.028*[#   1]+0.027*[#   4]
          +0.017*[#   6]
    |psi|^2 = 0.947
==== e(   9) =    20.05041 eV ==== 
     psi = 0.377*[#   3]+0.252*[#   5]+0.167*[#   2]+0.126*[#   4]+0.019*[#   7]
          +0.013*[#   9]+0.006*[#   8]+0.002*[#   1]+0.001*[#   6]
    |psi|^2 = 0.964

 k =   0.2501851166 -0.3538151851  0.5666666667
==== e(   1) =   -40.39470 eV ==== 
     psi = 0.968*[#   1]+0.030*[#   2]
    |psi|^2 = 1.000
==== e(   2) =   -18.70212 eV ==== 
     psi = 0.980*[#   6]+0.013*[#   2]+0.004*[#   3]+0.002*[#   5]+0.001*[#   4]
          
    |psi|^2 = 1.000
==== e(   3) =    -2.23491 eV ==== 
     psi = 0.421*[#   7]+0.281*[#   9]+0.140*[#   8]+0.079*[#   3]+0.052*[#   5]
          +0.026*[#   4]
    |psi|^2 = 0.999
==== e(   4) =    -0.50887 eV ==== 
     psi = 0.632*[#   8]+0.316*[#   9]+0.034*[#   4]+0.017*[#   5]
    |psi|^2 = 0.999
==== e(   5) =    -0.38546 eV ==== 
     psi = 0.479*[#   7]+0.319*[#   9]+0.160*[#   8]+0.018*[#   3]+0.012*[#   5]
          +0.006*[#   4]+0.004*[#   2]
    |psi|^2 = 0.999
==== e(   6) =    14.96449 eV ==== 
     psi = 0.411*[#   3]+0.274*[#   5]+0.137*[#   4]+0.078*[#   7]+0.052*[#   9]
          +0.026*[#   8]
    |psi|^2 = 0.977
==== e(   7) =    16.49032 eV ==== 
     psi = 0.269*[#   4]+0.134*[#   5]+0.014*[#   8]+0.007*[#   9]
    |psi|^2 = 0.424
==== e(   8) =    17.49182 eV ==== 
     psi = 0.775*[#   2]+0.064*[#   3]+0.043*[#   5]+0.028*[#   1]+0.021*[#   4]
          +0.016*[#   6]
    |psi|^2 = 0.949
==== e(   9) =    20.09356 eV ==== 
     psi = 0.394*[#   3]+0.263*[#   5]+0.133*[#   2]+0.131*[#   4]+0.020*[#   7]
          +0.013*[#   9]+0.007*[#   8]+0.002*[#   1]+0.001*[#   6]
    |psi|^2 = 0.966

 k =   0.2549963689 -0.3606193232  0.5583333333
==== e(   1) =   -40.39473 eV ==== 
     psi = 0.968*[#   1]+0.030*[#   2]
    |psi|^2 = 1.000
==== e(   2) =   -18.70127 eV ==== 
     psi = 0.981*[#   6]+0.013*[#   2]+0.003*[#   3]+0.002*[#   5]
    |psi|^2 = 1.000
==== e(   3) =    -2.25160 eV ==== 
     psi = 0.420*[#   7]+0.280*[#   9]+0.140*[#   8]+0.080*[#   3]+0.053*[#   5]
          +0.027*[#   4]
    |psi|^2 = 0.999
==== e(   4) =    -0.48723 eV ==== 
     psi = 0.633*[#   8]+0.316*[#   9]+0.033*[#   4]+0.017*[#   5]
    |psi|^2 = 0.999
==== e(   5) =    -0.39207 eV ==== 
     psi = 0.478*[#   7]+0.319*[#   9]+0.159*[#   8]+0.019*[#   3]+0.013*[#   5]
          +0.006*[#   4]+0.003*[#   2]
    |psi|^2 = 0.999
==== e(   6) =    14.96176 eV ==== 
     psi = 0.410*[#   3]+0.273*[#   5]+0.137*[#   4]+0.078*[#   7]+0.052*[#   9]
          +0.026*[#   8]
    |psi|^2 = 0.977
==== e(   7) =    16.55864 eV ==== 
     psi = 0.224*[#   4]+0.112*[#   5]+0.011*[#   8]+0.006*[#   9]
    |psi|^2 = 0.354
==== e(   8) =    17.48917 eV ==== 
     psi = 0.806*[#   2]+0.050*[#   3]+0.033*[#   5]+0.029*[#   1]+0.017*[#   4]
          +0.015*[#   6]
    |psi|^2 = 0.950
==== e(   9) =    20.13300 eV ==== 
     psi = 0.410*[#   3]+0.273*[#   5]+0.137*[#   4]+0.103*[#   2]+0.021*[#   7]
          +0.014*[#   9]+0.007*[#   8]+0.001*[#   1]+0.001*[#   6]
    |psi|^2 = 0.967

 k =   0.2598076211 -0.3674234614  0.5500000000
==== e(   1) =   -40.39476 eV ==== 
     psi = 0.968*[#   1]+0.030*[#   2]
    |psi|^2 = 1.000
==== e(   2) =   -18.70052 eV ==== 
     psi = 0.982*[#   6]+0.014*[#   2]+0.002*[#   3]+0.001*[#   5]
    |psi|^2 = 1.000
==== e(   3) =    -2.26613 eV ==== 
     psi = 0.419*[#   7]+0.280*[#   9]+0.140*[#   8]+0.080*[#   3]+0.054*[#   5]
          +0.027*[#   4]
    |psi|^2 = 0.999
==== e(   4) =    -0.46829 eV ==== 
     psi = 0.633*[#   8]+0.317*[#   9]+0.033*[#   4]+0.016*[#   5]
    |psi|^2 = 0.999
==== e(   5) =    -0.39794 eV ==== 
     psi = 0.478*[#   7]+0.319*[#   9]+0.159*[#   8]+0.020*[#   3]+0.014*[#   5]
          +0.007*[#   4]+0.002*[#   2]
    |psi|^2 = 0.999
==== e(   6) =    14.95946 eV ==== 
     psi = 0.410*[#   3]+0.273*[#   5]+0.137*[#   4]+0.079*[#   7]+0.053*[#   9]
          +0.026*[#   8]
    |psi|^2 = 0.978
==== e(   7) =    16.62287 eV ==== 
     psi = 0.179*[#   4]+0.089*[#   5]+0.009*[#   8]+0.004*[#   9]
    |psi|^2 = 0.281
==== e(   8) =    17.48683 eV ==== 
     psi = 0.833*[#   2]+0.037*[#   3]+0.029*[#   1]+0.025*[#   5]+0.015*[#   6]
          +0.012*[#   4]
    |psi|^2 = 0.952
==== e(   9) =    20.16827 eV ==== 
     psi = 0.424*[#   3]+0.282*[#   5]+0.141*[#   4]+0.076*[#   2]+0.022*[#   7]
          +0.014*[#   9]+0.007*[#   8]
    |psi|^2 = 0.968

 k =   0.2646188734 -0.3742275996  0.5416666667
==== e(   1) =   -40.39479 eV ==== 
     psi = 0.968*[#   1]+0.031*[#   2]
    |psi|^2 = 1.000
==== e(   2) =   -18.69986 eV ==== 
     psi = 0.982*[#   6]+0.014*[#   2]+0.001*[#   3]
    |psi|^2 = 1.000
==== e(   3) =    -2.27847 eV ==== 
     psi = 0.419*[#   7]+0.279*[#   9]+0.140*[#   8]+0.081*[#   3]+0.054*[#   5]
          +0.027*[#   4]
    |psi|^2 = 0.999
==== e(   4) =    -0.45213 eV ==== 
     psi = 0.634*[#   8]+0.317*[#   9]+0.032*[#   4]+0.016*[#   5]
    |psi|^2 = 0.999
==== e(   5) =    -0.40302 eV ==== 
     psi = 0.477*[#   7]+0.318*[#   9]+0.159*[#   8]+0.021*[#   3]+0.014*[#   5]
          +0.007*[#   4]+0.002*[#   2]
    |psi|^2 = 0.999
==== e(   6) =    14.95757 eV ==== 
     psi = 0.409*[#   3]+0.273*[#   5]+0.136*[#   4]+0.080*[#   7]+0.053*[#   9]
          +0.027*[#   8]
    |psi|^2 = 0.979
==== e(   7) =    16.68147 eV ==== 
     psi = 0.133*[#   4]+0.067*[#   5]+0.007*[#   8]+0.003*[#   9]
    |psi|^2 = 0.210
==== e(   8) =    17.48486 eV ==== 
     psi = 0.856*[#   2]+0.030*[#   1]+0.026*[#   3]+0.017*[#   5]+0.014*[#   6]
          +0.009*[#   4]
    |psi|^2 = 0.953
==== e(   9) =    20.19891 eV ==== 
     psi = 0.435*[#   3]+0.290*[#   5]+0.145*[#   4]+0.054*[#   2]+0.022*[#   7]
          +0.015*[#   9]+0.007*[#   8]
    |psi|^2 = 0.970

 k =   0.2694301256 -0.3810317378  0.5333333333
==== e(   1) =   -40.39484 eV ==== 
     psi = 0.968*[#   1]+0.031*[#   2]
    |psi|^2 = 1.000
==== e(   2) =   -18.69932 eV ==== 
     psi = 0.983*[#   6]+0.015*[#   2]
    |psi|^2 = 1.000
==== e(   3) =    -2.28860 eV ==== 
     psi = 0.418*[#   7]+0.279*[#   9]+0.139*[#   8]+0.081*[#   3]+0.054*[#   5]
          +0.027*[#   4]
    |psi|^2 = 0.999
==== e(   4) =    -0.43882 eV ==== 
     psi = 0.634*[#   8]+0.317*[#   9]+0.032*[#   4]+0.016*[#   5]
    |psi|^2 = 0.999
==== e(   5) =    -0.40726 eV ==== 
     psi = 0.477*[#   7]+0.318*[#   9]+0.159*[#   8]+0.022*[#   3]+0.015*[#   5]
          +0.007*[#   4]+0.001*[#   2]
    |psi|^2 = 0.999
==== e(   6) =    14.95606 eV ==== 
     psi = 0.409*[#   3]+0.273*[#   5]+0.136*[#   4]+0.080*[#   7]+0.054*[#   9]
          +0.027*[#   8]
    |psi|^2 = 0.979
==== e(   7) =    16.73277 eV ==== 
     psi = 0.091*[#   4]+0.046*[#   5]+0.004*[#   8]+0.002*[#   9]
    |psi|^2 = 0.143
==== e(   8) =    17.48317 eV ==== 
     psi = 0.876*[#   2]+0.030*[#   1]+0.017*[#   3]+0.014*[#   6]+0.011*[#   5]
          +0.006*[#   4]
    |psi|^2 = 0.953
==== e(   9) =    20.22454 eV ==== 
     psi = 0.445*[#   3]+0.297*[#   5]+0.148*[#   4]+0.034*[#   2]+0.023*[#   7]
          +0.015*[#   9]+0.008*[#   8]
    |psi|^2 = 0.971

 k =   0.2742413779 -0.3878358759  0.5250000000
==== e(   1) =   -40.39487 eV ==== 
     psi = 0.968*[#   1]+0.031*[#   2]
    |psi|^2 = 1.000
==== e(   2) =   -18.69889 eV ==== 
     psi = 0.983*[#   6]+0.015*[#   2]
    |psi|^2 = 1.000
==== e(   3) =    -2.29650 eV ==== 
     psi = 0.418*[#   7]+0.279*[#   9]+0.139*[#   8]+0.082*[#   3]+0.055*[#   5]
          +0.027*[#   4]
    |psi|^2 = 0.999
==== e(   4) =    -0.42841 eV ==== 
     psi = 0.635*[#   8]+0.317*[#   9]+0.032*[#   4]+0.016*[#   5]
    |psi|^2 = 0.999
==== e(   5) =    -0.41060 eV ==== 
     psi = 0.477*[#   7]+0.318*[#   9]+0.159*[#   8]+0.023*[#   3]+0.015*[#   5]
          +0.008*[#   4]
    |psi|^2 = 0.999
==== e(   6) =    14.95491 eV ==== 
     psi = 0.409*[#   3]+0.273*[#   5]+0.136*[#   4]+0.081*[#   7]+0.054*[#   9]
          +0.027*[#   8]
    |psi|^2 = 0.979
==== e(   7) =    16.77503 eV ==== 
     psi = 0.054*[#   4]+0.027*[#   5]+0.003*[#   8]+0.001*[#   9]
    |psi|^2 = 0.085
==== e(   8) =    17.48187 eV ==== 
     psi = 0.891*[#   2]+0.030*[#   1]+0.014*[#   6]+0.009*[#   3]+0.006*[#   5]
          +0.003*[#   4]
    |psi|^2 = 0.954
==== e(   9) =    20.24484 eV ==== 
     psi = 0.453*[#   3]+0.302*[#   5]+0.151*[#   4]+0.023*[#   7]+0.019*[#   2]
          +0.015*[#   9]+0.008*[#   8]
    |psi|^2 = 0.971

 k =   0.2790526301 -0.3946400141  0.5166666667
==== e(   1) =   -40.39489 eV ==== 
     psi = 0.968*[#   1]+0.031*[#   2]
    |psi|^2 = 1.000
==== e(   2) =   -18.69858 eV ==== 
     psi = 0.984*[#   6]+0.015*[#   2]
    |psi|^2 = 1.000
==== e(   3) =    -2.30214 eV ==== 
     psi = 0.418*[#   7]+0.278*[#   9]+0.139*[#   8]+0.082*[#   3]+0.055*[#   5]
          +0.027*[#   4]
    |psi|^2 = 0.999
==== e(   4) =    -0.42095 eV ==== 
     psi = 0.635*[#   8]+0.317*[#   9]+0.031*[#   4]+0.016*[#   5]
    |psi|^2 = 0.999
==== e(   5) =    -0.41301 eV ==== 
     psi = 0.476*[#   7]+0.318*[#   9]+0.159*[#   8]+0.023*[#   3]+0.015*[#   5]
          +0.008*[#   4]
    |psi|^2 = 0.999
==== e(   6) =    14.95410 eV ==== 
     psi = 0.409*[#   3]+0.273*[#   5]+0.136*[#   4]+0.081*[#   7]+0.054*[#   9]
          +0.027*[#   8]
    |psi|^2 = 0.980
==== e(   7) =    16.80662 eV ==== 
     psi = 0.025*[#   4]+0.012*[#   5]+0.001*[#   8]
    |psi|^2 = 0.039
==== e(   8) =    17.48095 eV ==== 
     psi = 0.902*[#   2]+0.030*[#   1]+0.014*[#   6]+0.004*[#   3]+0.003*[#   5]
          +0.001*[#   4]
    |psi|^2 = 0.954
==== e(   9) =    20.25953 eV ==== 
     psi = 0.458*[#   3]+0.306*[#   5]+0.153*[#   4]+0.023*[#   7]+0.016*[#   9]
          +0.009*[#   2]+0.008*[#   8]
    |psi|^2 = 0.972

 k =   0.2838638824 -0.4014441523  0.5083333333
==== e(   1) =   -40.39490 eV ==== 
     psi = 0.968*[#   1]+0.031*[#   2]
    |psi|^2 = 1.000
==== e(   2) =   -18.69839 eV ==== 
     psi = 0.984*[#   6]+0.015*[#   2]
    |psi|^2 = 1.000
==== e(   3) =    -2.30553 eV ==== 
     psi = 0.417*[#   7]+0.278*[#   9]+0.139*[#   8]+0.082*[#   3]+0.055*[#   5]
          +0.027*[#   4]
    |psi|^2 = 0.999
==== e(   4) =    -0.41645 eV ==== 
     psi = 0.635*[#   8]+0.317*[#   9]+0.031*[#   4]+0.016*[#   5]
    |psi|^2 = 0.999
==== e(   5) =    -0.41447 eV ==== 
     psi = 0.476*[#   7]+0.318*[#   9]+0.159*[#   8]+0.023*[#   3]+0.016*[#   5]
          +0.008*[#   4]
    |psi|^2 = 0.999
==== e(   6) =    14.95362 eV ==== 
     psi = 0.409*[#   3]+0.272*[#   5]+0.136*[#   4]+0.081*[#   7]+0.054*[#   9]
          +0.027*[#   8]
    |psi|^2 = 0.980
==== e(   7) =    16.82620 eV ==== 
     psi = 0.006*[#   4]+0.003*[#   5]
    |psi|^2 = 0.010
==== e(   8) =    17.48040 eV ==== 
     psi = 0.909*[#   2]+0.030*[#   1]+0.013*[#   6]+0.001*[#   3]
    |psi|^2 = 0.954
==== e(   9) =    20.26842 eV ==== 
     psi = 0.462*[#   3]+0.308*[#   5]+0.154*[#   4]+0.023*[#   7]+0.016*[#   9]
          +0.008*[#   8]+0.002*[#   2]
    |psi|^2 = 0.972

 k =   0.2886751346 -0.4082482905  0.5000000000
==== e(   1) =   -40.39490 eV ==== 
     psi = 0.968*[#   1]+0.031*[#   2]
    |psi|^2 = 1.000
==== e(   2) =   -18.69833 eV ==== 
     psi = 0.984*[#   6]+0.015*[#   2]
    |psi|^2 = 1.000
==== e(   3) =    -2.30667 eV ==== 
     psi = 0.417*[#   7]+0.278*[#   9]+0.139*[#   8]+0.082*[#   3]+0.055*[#   5]
          +0.027*[#   4]
    |psi|^2 = 0.999
==== e(   4) =    -0.41495 eV ==== 
     psi = 0.728*[#   8]+0.224*[#   7]+0.036*[#   4]+0.011*[#   3]
    |psi|^2 = 0.999
==== e(   5) =    -0.41495 eV ==== 
     psi = 0.634*[#   9]+0.252*[#   7]+0.066*[#   8]+0.031*[#   5]+0.012*[#   3]
          +0.003*[#   4]
    |psi|^2 = 0.999
==== e(   6) =    14.95346 eV ==== 
     psi = 0.409*[#   3]+0.272*[#   5]+0.136*[#   4]+0.081*[#   7]+0.054*[#   9]
          +0.027*[#   8]
    |psi|^2 = 0.980
==== e(   7) =    16.83283 eV ==== 

    |psi|^2 = 0.000
==== e(   8) =    17.48021 eV ==== 
     psi = 0.911*[#   2]+0.030*[#   1]+0.013*[#   6]
    |psi|^2 = 0.955
==== e(   9) =    20.27140 eV ==== 
     psi = 0.372*[#   3]+0.280*[#   4]+0.274*[#   5]+0.019*[#   7]+0.014*[#   8]
          +0.014*[#   9]
    |psi|^2 = 0.973

Lowdin Charges: 

     Atom #   1: total charge =   2.5792, s =  2.1106, p =  0.4687, 
                 spin up      =   1.2896, s =  1.0553, 
                 spin up      =   1.2896, p =  0.2343, pz=  0.1209, px=  0.0544, py=  0.0590, 
                 spin down    =   1.2896, s =  1.0553, 
                 spin down    =   1.2896, p =  0.2343, pz=  0.1209, px=  0.0544, py=  0.0590, 
                 polarization =   0.0000, s =  0.0000, p =  0.0000, 
     Atom #   2: total charge =   7.4113, s =  1.7547, p =  5.6566, 
                 spin up      =   3.7057, s =  0.8774, 
                 spin up      =   3.7057, p =  2.8283, pz=  0.9251, px=  0.9532, py=  0.9499, 
                 spin down    =   3.7057, s =  0.8774, 
                 spin down    =   3.7057, p =  2.8283, pz=  0.9251, px=  0.9532, py=  0.9499, 
                 polarization =  -0.0000, s = -0.0000, p = -0.0000, 
     Spilling Parameter:   0.0009

     PROJWFC      :     33.30s CPU     36.02s WALL


   This run was terminated on:  11: 0:52  30Aug2020            

=------------------------------------------------------------------------------=
   JOB DONE.
=------------------------------------------------------------------------------=
