
     Program PWSCF v.6.5 starts on 29Aug2020 at 14:47:14 

     This program is part of the open-source Quantum ESPRESSO suite
     for quantum simulation of materials; please cite
         "P. Giannozzi et al., J. Phys.:Condens. Matter 21 395502 (2009);
         "P. Giannozzi et al., J. Phys.:Condens. Matter 29 465901 (2017);
          URL http://www.quantum-espresso.org", 
     in publications or presentations arising from this work. More details at
     http://www.quantum-espresso.org/quote

     Parallel version (MPI), running on    16 processors

     MPI processes distributed on     1 nodes
     R & G space division:  proc/nbgrp/npool/nimage =      16
     Waiting for input...
     Reading input from standard input

     Current dimensions of program PWSCF are:
     Max number of different atomic species (ntypx) = 10
     Max number of k-points (npk) =  40000
     Max angular momentum in pseudopotentials (lmaxx) =  3

     Atomic positions and unit cell read from directory:
     ./LiNbO3.save/                                                                                                                                                                                                                                                  

               file Nb.pbe-spn-kjpaw_psl.1.0.0.UPF: wavefunction(s)  4S 4P 4D renormalized
               file O.pbe-n-kjpaw_psl.1.0.0.UPF: wavefunction(s)  2S 2P renormalized

     Subspace diagonalization in iterative solution of the eigenvalue problem:
     a serial algorithm will be used


     Parallelization info
     --------------------
     sticks:   dense  smooth     PW     G-vecs:    dense   smooth      PW
     Min         275     183     50                11652     6337     914
     Max         276     184     51                11654     6341     916
     Sum        4407    2933    811               186447   101415   14645



     bravais-lattice index     =            0
     lattice parameter (alat)  =      10.5681  a.u.
     unit-cell volume          =     750.8677 (a.u.)^3
     number of atoms/cell      =           10
     number of atomic types    =            3
     number of electrons       =        68.00
     number of Kohn-Sham states=           41
     kinetic-energy cutoff     =     100.0000  Ry
     charge density cutoff     =     600.0000  Ry
     Exchange-correlation= SLA PW PBX PBC
                           (   1   4   3   4   0   0   0)

     celldm(1)=  10.568104  celldm(2)=   0.000000  celldm(3)=   0.000000
     celldm(4)=   0.000000  celldm(5)=   0.000000  celldm(6)=   0.000000

     crystal axes: (cart. coord. in units of alat)
               a(1) = (   1.000000   0.000000   0.000000 )  
               a(2) = (   0.563874   0.825861   0.000000 )  
               a(3) = (   0.563874   0.297774   0.770309 )  

     reciprocal axes: (cart. coord. in units 2 pi/alat)
               b(1) = (  1.000000 -0.682771 -0.468075 )  
               b(2) = (  0.000000  1.210858 -0.468075 )  
               b(3) = (  0.000000  0.000000  1.298180 )  


     PseudoPot. # 1 for Nb read from file:
     /scratch/lllang/LiNbO3/pseudos/Nb.pbe-spn-kjpaw_psl.1.0.0.UPF
     MD5 check sum: dcedcbb129af9a7271e4748e5febedb1
     Pseudo is Projector augmented-wave + core cor, Zval = 13.0
     Generated using "atomic" code by A. Dal Corso v.6.2.2
     Shape of augmentation charge: PSQ
     Using radial grid of 1227 points,  6 beta functions with: 
                l(1) =   0
                l(2) =   0
                l(3) =   1
                l(4) =   1
                l(5) =   2
                l(6) =   2
     Q(r) pseudized with 0 coefficients 


     PseudoPot. # 2 for O  read from file:
     /scratch/lllang/LiNbO3/pseudos/O.pbe-n-kjpaw_psl.1.0.0.UPF
     MD5 check sum: e99d9cef9b487d1ca56f5b95ecd0fd7a
     Pseudo is Projector augmented-wave + core cor, Zval =  6.0
     Generated using "atomic" code by A. Dal Corso v.6.3
     Shape of augmentation charge: PSQ
     Using radial grid of 1095 points,  4 beta functions with: 
                l(1) =   0
                l(2) =   0
                l(3) =   1
                l(4) =   1
     Q(r) pseudized with 0 coefficients 


     PseudoPot. # 3 for Li read from file:
     /scratch/lllang/LiNbO3/pseudos/Li.pbe-s-kjpaw_psl.1.0.0.UPF
     MD5 check sum: 3974953fb0fea6c4f83fb01d64ffc134
     Pseudo is Projector augmented-wave, Zval =  3.0
     Generated using "atomic" code by A. Dal Corso v.6.3
     Shape of augmentation charge: PSQ
     Using radial grid of 1017 points,  4 beta functions with: 
                l(1) =   0
                l(2) =   0
                l(3) =   1
                l(4) =   1
     Q(r) pseudized with 0 coefficients 


     atomic species   valence    mass     pseudopotential
        Nb            13.00    92.90600     Nb( 1.00)
        O              6.00    15.99900     O ( 1.00)
        Li             3.00     6.96750     Li( 1.00)

     No symmetry found



   Cartesian axes

     site n.     atom                  positions (alat units)
         1           Nb  tau(   1) = (   2.1261116   1.1227711   0.7697171  )
         2           Nb  tau(   2) = (   1.0622377   0.5609535   0.3845624  )
         3           O   tau(   3) = (   1.2995952   0.8186817   0.2156474  )
         4           O   tau(   4) = (   1.4089250   0.4216804   0.4927547  )
         5           O   tau(   5) = (   1.1427054   0.7934187   0.6858589  )
         6           O   tau(   6) = (   0.9089250   0.3476083   0.6008021  )
         7           O   tau(   7) = (   0.7995952   0.7603709   0.3007042  )
         8           O   tau(   8) = (   1.0788315   0.3639840   0.1075999  )
         9           Li  tau(   9) = (   1.5259526   0.8058352   0.5524413  )
        10           Li  tau(  10) = (   0.4620787   0.2440176   0.1672866  )

     number of k points=   213  Marzari-Vanderbilt smearing, width (Ry)=  0.0050

     Number of k-points >= 100: set verbosity='high' to print them.

     Dense  grid:   186447 G-vectors     FFT dimensions: (  90,  90,  90)

     Smooth grid:   101415 G-vectors     FFT dimensions: (  72,  72,  72)

     Estimated max dynamical RAM per process >      51.21 MB

     Estimated total dynamical RAM >     819.44 MB

     The potential is recalculated from file :
     ./LiNbO3.save/charge-density

     Starting wfcs are   60 randomized atomic wfcs
     Checking if some PAW data can be deallocated... 

     Band Structure Calculation
     Davidson diagonalization with overlap
     c_bands:  1 eigenvalues not converged
     c_bands:  1 eigenvalues not converged
     c_bands:  1 eigenvalues not converged
     c_bands:  1 eigenvalues not converged
     c_bands:  1 eigenvalues not converged
     c_bands:  1 eigenvalues not converged
     c_bands:  1 eigenvalues not converged
     c_bands:  1 eigenvalues not converged
     c_bands:  1 eigenvalues not converged
     c_bands:  1 eigenvalues not converged
     c_bands:  1 eigenvalues not converged
     c_bands:  1 eigenvalues not converged
     c_bands:  1 eigenvalues not converged
     c_bands:  1 eigenvalues not converged
     c_bands:  1 eigenvalues not converged
     c_bands:  1 eigenvalues not converged
     c_bands:  1 eigenvalues not converged
     c_bands:  1 eigenvalues not converged
     c_bands:  1 eigenvalues not converged
     c_bands:  1 eigenvalues not converged
     c_bands:  1 eigenvalues not converged
     c_bands:  1 eigenvalues not converged
     c_bands:  1 eigenvalues not converged
     c_bands:  1 eigenvalues not converged
     c_bands:  1 eigenvalues not converged
     c_bands:  1 eigenvalues not converged
     c_bands:  1 eigenvalues not converged
     c_bands:  1 eigenvalues not converged
     c_bands:  1 eigenvalues not converged
     c_bands:  1 eigenvalues not converged

     ethr =  1.47E-11,  avg # of iterations = 55.0

     total cpu time spent up to now is      208.9 secs

     End of band structure calculation

     Number of k-points >= 100: set verbosity='high' to print the bands.

     Writing output data file ./LiNbO3.save/

     init_run     :      1.40s CPU      1.46s WALL (       1 calls)
     electrons    :    203.15s CPU    204.80s WALL (       1 calls)

     Called by init_run:
     wfcinit      :      0.00s CPU      0.00s WALL (       1 calls)
     potinit      :      0.18s CPU      0.21s WALL (       1 calls)
     hinit0       :      1.08s CPU      1.10s WALL (       1 calls)

     Called by electrons:
     c_bands      :    203.15s CPU    204.80s WALL (       1 calls)
     v_of_rho     :      0.04s CPU      0.04s WALL (       1 calls)
     newd         :      0.07s CPU      0.08s WALL (       1 calls)
     PAW_pot      :      0.13s CPU      0.13s WALL (       1 calls)

     Called by c_bands:
     init_us_2    :      0.04s CPU      0.13s WALL (     213 calls)
     cegterg      :    191.61s CPU    192.81s WALL (     682 calls)

     Called by sum_band:

     Called by *egterg:
     h_psi        :    120.12s CPU    124.54s WALL (   12614 calls)
     s_psi        :      4.52s CPU      4.70s WALL (   12614 calls)
     g_psi        :      0.95s CPU      0.97s WALL (   11719 calls)
     cdiaghg      :     44.65s CPU     43.53s WALL (   11932 calls)

     Called by h_psi:
     h_psi:calbec :      6.18s CPU      5.85s WALL (   12614 calls)
     vloc_psi     :    109.32s CPU    113.33s WALL (   12614 calls)
     add_vuspsi   :      4.43s CPU      4.84s WALL (   12614 calls)

     General routines
     calbec       :      6.17s CPU      5.83s WALL (   12614 calls)
     fft          :      0.03s CPU      0.04s WALL (      13 calls)
     ffts         :      0.00s CPU      0.00s WALL (       1 calls)
     fftw         :     98.20s CPU    100.46s WALL (  392604 calls)
     interpolate  :      0.00s CPU      0.00s WALL (       1 calls)
     davcio       :      0.07s CPU      0.42s WALL (     426 calls)

     Parallel routines
     fft_scatt_xy :     14.50s CPU     15.85s WALL (  392618 calls)
     fft_scatt_yz :     24.38s CPU     22.84s WALL (  392618 calls)

     PWSCF        :   3m28.64s CPU   3m48.29s WALL


   This run was terminated on:  14:51: 2  29Aug2020            

=------------------------------------------------------------------------------=
   JOB DONE.
=------------------------------------------------------------------------------=
