
     Program PWSCF v.6.5 starts on 29Aug2020 at 14:36: 6 

     This program is part of the open-source Quantum ESPRESSO suite
     for quantum simulation of materials; please cite
         "P. Giannozzi et al., J. Phys.:Condens. Matter 21 395502 (2009);
         "P. Giannozzi et al., J. Phys.:Condens. Matter 29 465901 (2017);
          URL http://www.quantum-espresso.org", 
     in publications or presentations arising from this work. More details at
     http://www.quantum-espresso.org/quote

     Parallel version (MPI), running on    16 processors

     MPI processes distributed on     1 nodes
     R & G space division:  proc/nbgrp/npool/nimage =      16
     Waiting for input...
     Reading input from standard input

     Current dimensions of program PWSCF are:
     Max number of different atomic species (ntypx) = 10
     Max number of k-points (npk) =  40000
     Max angular momentum in pseudopotentials (lmaxx) =  3
               file Nb.pbe-spn-kjpaw_psl.1.0.0.UPF: wavefunction(s)  4S 4P 4D renormalized
               file O.pbe-n-kjpaw_psl.1.0.0.UPF: wavefunction(s)  2S 2P renormalized

     Subspace diagonalization in iterative solution of the eigenvalue problem:
     a serial algorithm will be used


     Parallelization info
     --------------------
     sticks:   dense  smooth     PW     G-vecs:    dense   smooth      PW
     Min         275     183     51                11652     6337     958
     Max         276     184     52                11654     6341     963
     Sum        4407    2933    827               186447   101415   15367



     bravais-lattice index     =            0
     lattice parameter (alat)  =      10.5681  a.u.
     unit-cell volume          =     750.8677 (a.u.)^3
     number of atoms/cell      =           10
     number of atomic types    =            3
     number of electrons       =        68.00
     number of Kohn-Sham states=           41
     kinetic-energy cutoff     =     100.0000  Ry
     charge density cutoff     =     600.0000  Ry
     convergence threshold     =      1.0E-08
     mixing beta               =       0.7000
     number of iterations used =            8  plain     mixing
     Exchange-correlation= SLA PW PBX PBC
                           (   1   4   3   4   0   0   0)

     celldm(1)=  10.568104  celldm(2)=   0.000000  celldm(3)=   0.000000
     celldm(4)=   0.000000  celldm(5)=   0.000000  celldm(6)=   0.000000

     crystal axes: (cart. coord. in units of alat)
               a(1) = (   1.000000   0.000000   0.000000 )  
               a(2) = (   0.563874   0.825861   0.000000 )  
               a(3) = (   0.563874   0.297774   0.770309 )  

     reciprocal axes: (cart. coord. in units 2 pi/alat)
               b(1) = (  1.000000 -0.682771 -0.468075 )  
               b(2) = (  0.000000  1.210858 -0.468075 )  
               b(3) = (  0.000000  0.000000  1.298180 )  


     PseudoPot. # 1 for Nb read from file:
     /scratch/lllang/LiNbO3/pseudos/Nb.pbe-spn-kjpaw_psl.1.0.0.UPF
     MD5 check sum: dcedcbb129af9a7271e4748e5febedb1
     Pseudo is Projector augmented-wave + core cor, Zval = 13.0
     Generated using "atomic" code by A. Dal Corso v.6.2.2
     Shape of augmentation charge: PSQ
     Using radial grid of 1227 points,  6 beta functions with: 
                l(1) =   0
                l(2) =   0
                l(3) =   1
                l(4) =   1
                l(5) =   2
                l(6) =   2
     Q(r) pseudized with 0 coefficients 


     PseudoPot. # 2 for O  read from file:
     /scratch/lllang/LiNbO3/pseudos/O.pbe-n-kjpaw_psl.1.0.0.UPF
     MD5 check sum: e99d9cef9b487d1ca56f5b95ecd0fd7a
     Pseudo is Projector augmented-wave + core cor, Zval =  6.0
     Generated using "atomic" code by A. Dal Corso v.6.3
     Shape of augmentation charge: PSQ
     Using radial grid of 1095 points,  4 beta functions with: 
                l(1) =   0
                l(2) =   0
                l(3) =   1
                l(4) =   1
     Q(r) pseudized with 0 coefficients 


     PseudoPot. # 3 for Li read from file:
     /scratch/lllang/LiNbO3/pseudos/Li.pbe-s-kjpaw_psl.1.0.0.UPF
     MD5 check sum: 3974953fb0fea6c4f83fb01d64ffc134
     Pseudo is Projector augmented-wave, Zval =  3.0
     Generated using "atomic" code by A. Dal Corso v.6.3
     Shape of augmentation charge: PSQ
     Using radial grid of 1017 points,  4 beta functions with: 
                l(1) =   0
                l(2) =   0
                l(3) =   1
                l(4) =   1
     Q(r) pseudized with 0 coefficients 


     atomic species   valence    mass     pseudopotential
        Nb            13.00    92.90600     Nb( 1.00)
        O              6.00    15.99900     O ( 1.00)
        Li             3.00     6.96750     Li( 1.00)

     No symmetry found



   Cartesian axes

     site n.     atom                  positions (alat units)
         1           Nb  tau(   1) = (   2.1261116   1.1227711   0.7697171  )
         2           Nb  tau(   2) = (   1.0622377   0.5609535   0.3845624  )
         3           O   tau(   3) = (   1.2995952   0.8186817   0.2156474  )
         4           O   tau(   4) = (   1.4089250   0.4216804   0.4927547  )
         5           O   tau(   5) = (   1.1427054   0.7934187   0.6858589  )
         6           O   tau(   6) = (   0.9089250   0.3476083   0.6008021  )
         7           O   tau(   7) = (   0.7995952   0.7603709   0.3007042  )
         8           O   tau(   8) = (   1.0788315   0.3639840   0.1075999  )
         9           Li  tau(   9) = (   1.5259526   0.8058352   0.5524413  )
        10           Li  tau(  10) = (   0.4620787   0.2440176   0.1672866  )

     number of k points=   365  Marzari-Vanderbilt smearing, width (Ry)=  0.0050

     Number of k-points >= 100: set verbosity='high' to print them.

     Dense  grid:   186447 G-vectors     FFT dimensions: (  90,  90,  90)

     Smooth grid:   101415 G-vectors     FFT dimensions: (  72,  72,  72)

     Estimated max dynamical RAM per process >     235.46 MB

     Estimated total dynamical RAM >       3.68 GB

     Initial potential from superposition of free atoms

     starting charge   67.98816, renormalised to   68.00000
     Starting wfcs are   60 randomized atomic wfcs
     Checking if some PAW data can be deallocated... 

     total cpu time spent up to now is       21.2 secs

     Self-consistent Calculation

     iteration #  1     ecut=   100.00 Ry     beta= 0.70
     Davidson diagonalization with overlap
     ethr =  1.00E-02,  avg # of iterations =  2.0

     total cpu time spent up to now is       53.4 secs

     total energy              =    -947.51305051 Ry
     Harris-Foulkes estimate   =    -950.44007373 Ry
     estimated scf accuracy    <       3.74319973 Ry

     iteration #  2     ecut=   100.00 Ry     beta= 0.70
     Davidson diagonalization with overlap
     ethr =  5.50E-03,  avg # of iterations =  4.0

     total cpu time spent up to now is      109.1 secs

     total energy              =    -945.19151788 Ry
     Harris-Foulkes estimate   =    -953.04371222 Ry
     estimated scf accuracy    <      24.46135433 Ry

     iteration #  3     ecut=   100.00 Ry     beta= 0.70
     Davidson diagonalization with overlap
     ethr =  5.50E-03,  avg # of iterations =  4.0

     total cpu time spent up to now is      158.0 secs

     total energy              =    -949.67299375 Ry
     Harris-Foulkes estimate   =    -949.80642597 Ry
     estimated scf accuracy    <       0.49677003 Ry

     iteration #  4     ecut=   100.00 Ry     beta= 0.70
     Davidson diagonalization with overlap
     ethr =  7.31E-04,  avg # of iterations =  1.9

     total cpu time spent up to now is      188.7 secs

     total energy              =    -949.59138730 Ry
     Harris-Foulkes estimate   =    -949.68902123 Ry
     estimated scf accuracy    <       0.20488962 Ry

     iteration #  5     ecut=   100.00 Ry     beta= 0.70
     Davidson diagonalization with overlap
     ethr =  3.01E-04,  avg # of iterations =  4.2

     total cpu time spent up to now is      233.2 secs

     total energy              =    -949.65351973 Ry
     Harris-Foulkes estimate   =    -949.65586808 Ry
     estimated scf accuracy    <       0.01348154 Ry

     iteration #  6     ecut=   100.00 Ry     beta= 0.70
     Davidson diagonalization with overlap
     ethr =  1.98E-05,  avg # of iterations =  1.7

     total cpu time spent up to now is      263.3 secs

     total energy              =    -949.64994521 Ry
     Harris-Foulkes estimate   =    -949.65403657 Ry
     estimated scf accuracy    <       0.00838896 Ry

     iteration #  7     ecut=   100.00 Ry     beta= 0.70
     Davidson diagonalization with overlap
     ethr =  1.23E-05,  avg # of iterations =  3.4

     total cpu time spent up to now is      302.1 secs

     total energy              =    -949.65158708 Ry
     Harris-Foulkes estimate   =    -949.65162934 Ry
     estimated scf accuracy    <       0.00014863 Ry

     iteration #  8     ecut=   100.00 Ry     beta= 0.70
     Davidson diagonalization with overlap
     ethr =  2.19E-07,  avg # of iterations =  4.6

     total cpu time spent up to now is      359.1 secs

     total energy              =    -949.65171614 Ry
     Harris-Foulkes estimate   =    -949.65171836 Ry
     estimated scf accuracy    <       0.00001698 Ry

     iteration #  9     ecut=   100.00 Ry     beta= 0.70
     Davidson diagonalization with overlap
     ethr =  2.50E-08,  avg # of iterations =  1.0

     total cpu time spent up to now is      388.3 secs

     total energy              =    -949.65171477 Ry
     Harris-Foulkes estimate   =    -949.65171816 Ry
     estimated scf accuracy    <       0.00000962 Ry

     iteration # 10     ecut=   100.00 Ry     beta= 0.70
     Davidson diagonalization with overlap
     ethr =  1.41E-08,  avg # of iterations =  3.0

     total cpu time spent up to now is      430.5 secs

     total energy              =    -949.65171570 Ry
     Harris-Foulkes estimate   =    -949.65171724 Ry
     estimated scf accuracy    <       0.00000597 Ry

     iteration # 11     ecut=   100.00 Ry     beta= 0.70
     Davidson diagonalization with overlap
     ethr =  8.78E-09,  avg # of iterations =  1.0

     total cpu time spent up to now is      459.7 secs

     total energy              =    -949.65171536 Ry
     Harris-Foulkes estimate   =    -949.65171616 Ry
     estimated scf accuracy    <       0.00000309 Ry

     iteration # 12     ecut=   100.00 Ry     beta= 0.70
     Davidson diagonalization with overlap
     ethr =  4.54E-09,  avg # of iterations =  3.0

     total cpu time spent up to now is      497.6 secs

     total energy              =    -949.65171579 Ry
     Harris-Foulkes estimate   =    -949.65171593 Ry
     estimated scf accuracy    <       0.00000079 Ry

     iteration # 13     ecut=   100.00 Ry     beta= 0.70
     Davidson diagonalization with overlap
     ethr =  1.16E-09,  avg # of iterations =  1.0

     total cpu time spent up to now is      526.7 secs

     total energy              =    -949.65171575 Ry
     Harris-Foulkes estimate   =    -949.65171583 Ry
     estimated scf accuracy    <       0.00000039 Ry

     iteration # 14     ecut=   100.00 Ry     beta= 0.70
     Davidson diagonalization with overlap
     ethr =  5.68E-10,  avg # of iterations =  2.9

     total cpu time spent up to now is      559.9 secs

     total energy              =    -949.65171575 Ry
     Harris-Foulkes estimate   =    -949.65171579 Ry
     estimated scf accuracy    <       0.00000017 Ry

     iteration # 15     ecut=   100.00 Ry     beta= 0.70
     Davidson diagonalization with overlap
     ethr =  2.50E-10,  avg # of iterations =  2.6

     total cpu time spent up to now is      592.1 secs

     total energy              =    -949.65171575 Ry
     Harris-Foulkes estimate   =    -949.65171576 Ry
     estimated scf accuracy    <       0.00000004 Ry

     iteration # 16     ecut=   100.00 Ry     beta= 0.70
     Davidson diagonalization with overlap
     ethr =  6.56E-11,  avg # of iterations =  3.8

     total cpu time spent up to now is      637.3 secs

     End of self-consistent calculation

     Number of k-points >= 100: set verbosity='high' to print the bands.

     the Fermi energy is     6.6653 ev

!    total energy              =    -949.65171576 Ry
     Harris-Foulkes estimate   =    -949.65171576 Ry
     estimated scf accuracy    <          2.2E-09 Ry

     total all-electron energy =    -16214.145532 Ry

     The total energy is the sum of the following terms:

     one-electron contribution =    -150.52267209 Ry
     hartree contribution      =     109.08016819 Ry
     xc contribution           =     -89.07656649 Ry
     ewald contribution        =    -324.18369692 Ry
     one-center paw contrib.   =    -494.94990408 Ry
     smearing contrib. (-TS)   =       0.00095563 Ry

     convergence has been achieved in  16 iterations

     Writing output data file ./LiNbO3.save/

     init_run     :     19.21s CPU     19.47s WALL (       1 calls)
     electrons    :    611.48s CPU    616.17s WALL (       1 calls)

     Called by init_run:
     wfcinit      :     17.23s CPU     17.45s WALL (       1 calls)
     potinit      :      0.72s CPU      0.74s WALL (       1 calls)
     hinit0       :      1.11s CPU      1.12s WALL (       1 calls)

     Called by electrons:
     c_bands      :    520.76s CPU    524.67s WALL (      16 calls)
     sum_band     :     86.74s CPU     87.43s WALL (      16 calls)
     v_of_rho     :      0.70s CPU      0.71s WALL (      17 calls)
     newd         :      1.27s CPU      1.28s WALL (      17 calls)
     PAW_pot      :      2.13s CPU      2.15s WALL (      17 calls)
     mix_rho      :      0.05s CPU      0.06s WALL (      16 calls)

     Called by c_bands:
     init_us_2    :      4.53s CPU      7.14s WALL (   12045 calls)
     cegterg      :    504.68s CPU    508.37s WALL (    5840 calls)

     Called by sum_band:
     sum_band:bec :      0.03s CPU      0.20s WALL (    5840 calls)
     addusdens    :      1.32s CPU      1.33s WALL (      16 calls)

     Called by *egterg:
     h_psi        :    382.42s CPU    392.30s WALL (   22329 calls)
     s_psi        :     12.85s CPU     13.37s WALL (   22329 calls)
     g_psi        :      2.19s CPU      2.26s WALL (   16124 calls)
     cdiaghg      :     71.90s CPU     64.37s WALL (   21964 calls)

     Called by h_psi:
     h_psi:calbec :     21.57s CPU     16.59s WALL (   22329 calls)
     vloc_psi     :    351.50s CPU    359.76s WALL (   22329 calls)
     add_vuspsi   :      8.46s CPU     14.12s WALL (   22329 calls)

     General routines
     calbec       :     29.29s CPU     22.00s WALL (   28169 calls)
     fft          :      0.30s CPU      0.30s WALL (     219 calls)
     ffts         :      0.01s CPU      0.02s WALL (      33 calls)
     fftw         :    384.48s CPU    382.68s WALL ( 1493642 calls)
     interpolate  :      0.03s CPU      0.03s WALL (      17 calls)

     Parallel routines
     fft_scatt_xy :     51.38s CPU     61.84s WALL ( 1493894 calls)
     fft_scatt_yz :    130.79s CPU     90.94s WALL ( 1493894 calls)

     PWSCF        :  10m34.89s CPU  11m 7.89s WALL


   This run was terminated on:  14:47:14  29Aug2020            

=------------------------------------------------------------------------------=
   JOB DONE.
=------------------------------------------------------------------------------=
