
     Program PROJWFC v.6.5 starts on 31Aug2020 at 12:31: 4 

     This program is part of the open-source Quantum ESPRESSO suite
     for quantum simulation of materials; please cite
         "P. Giannozzi et al., J. Phys.:Condens. Matter 21 395502 (2009);
         "P. Giannozzi et al., J. Phys.:Condens. Matter 29 465901 (2017);
          URL http://www.quantum-espresso.org", 
     in publications or presentations arising from this work. More details at
     http://www.quantum-espresso.org/quote

     Parallel version (MPI), running on    16 processors

     MPI processes distributed on     1 nodes
     R & G space division:  proc/nbgrp/npool/nimage =      16

     Reading xml data from directory:

     ./LiF.save/

     IMPORTANT: XC functional enforced from input :
     Exchange-correlation= PBE
                           (   1   4   3   4   0   0   0)
     Any further DFT definition will be discarded
     Please, verify this is what you really want

               file F.pbe-n-kjpaw_psl.1.0.0.UPF: wavefunction(s)  2S 2P renormalized

     Parallelization info
     --------------------
     sticks:   dense  smooth     PW     G-vecs:    dense   smooth      PW
     Min          77      51     15                 1784      973     160
     Max          78      52     16                 1787      977     162
     Sum        1237     823    253                28571    15593    2565

     Generating pointlists ...
     new r_m :   0.2917 (alat units)  1.5915 (a.u.) for type    1
     new r_m :   0.2917 (alat units)  1.5915 (a.u.) for type    2

     Gaussian broadening (read from input): ngauss,degauss=   0    0.036748


     Calling projwave .... 

  Problem Sizes 
  natomwfc =            9
  nbnd     =            9
  nkstot   =          538
  npwx     =          127
  nkb      =           16


     Atomic states used for projection
     (read from pseudopotential files):

     state #   1: atom   1 (Li ), wfc  1 (l=0 m= 1)
     state #   2: atom   1 (Li ), wfc  2 (l=0 m= 1)
     state #   3: atom   1 (Li ), wfc  3 (l=1 m= 1)
     state #   4: atom   1 (Li ), wfc  3 (l=1 m= 2)
     state #   5: atom   1 (Li ), wfc  3 (l=1 m= 3)
     state #   6: atom   2 (F  ), wfc  1 (l=0 m= 1)
     state #   7: atom   2 (F  ), wfc  2 (l=1 m= 1)
     state #   8: atom   2 (F  ), wfc  2 (l=1 m= 2)
     state #   9: atom   2 (F  ), wfc  2 (l=1 m= 3)

 k =   0.0000000000  0.0000000000  0.0000000000
==== e(   1) =   -40.45651 eV ==== 
     psi = 0.918*[#   1]+0.082*[#   2]
    |psi|^2 = 1.000
==== e(   2) =   -19.33506 eV ==== 
     psi = 0.697*[#   6]+0.280*[#   2]+0.023*[#   1]
    |psi|^2 = 1.000
==== e(   3) =     0.52238 eV ==== 
     psi = 0.496*[#   7]+0.302*[#   8]+0.199*[#   9]
    |psi|^2 = 0.998
==== e(   4) =     0.52238 eV ==== 
     psi = 0.633*[#   8]+0.285*[#   9]+0.080*[#   7]
    |psi|^2 = 0.998
==== e(   5) =     0.52238 eV ==== 
     psi = 0.513*[#   9]+0.422*[#   7]+0.062*[#   8]
    |psi|^2 = 0.998
==== e(   6) =     9.23842 eV ==== 
     psi = 0.636*[#   2]+0.301*[#   6]+0.059*[#   1]
    |psi|^2 = 0.996
==== e(   7) =    23.93225 eV ==== 
     psi = 0.395*[#   4]+0.328*[#   3]
    |psi|^2 = 0.725
==== e(   8) =    23.93225 eV ==== 
     psi = 0.647*[#   5]+0.048*[#   3]+0.029*[#   4]+0.001*[#   9]
    |psi|^2 = 0.725
==== e(   9) =    23.93225 eV ==== 
     psi = 0.347*[#   3]+0.300*[#   4]+0.076*[#   5]
    |psi|^2 = 0.725

 k =   0.0048112522 -0.0068041381  0.0083333333
==== e(   1) =   -40.45647 eV ==== 
     psi = 0.918*[#   1]+0.081*[#   2]
    |psi|^2 = 1.000
==== e(   2) =   -19.33471 eV ==== 
     psi = 0.697*[#   6]+0.279*[#   2]+0.023*[#   1]
    |psi|^2 = 1.000
==== e(   3) =     0.52058 eV ==== 
     psi = 0.499*[#   7]+0.332*[#   9]+0.166*[#   8]
    |psi|^2 = 0.998
==== e(   4) =     0.52172 eV ==== 
     psi = 0.659*[#   9]+0.298*[#   7]+0.041*[#   8]
    |psi|^2 = 0.998
==== e(   5) =     0.52172 eV ==== 
     psi = 0.790*[#   8]+0.201*[#   7]+0.006*[#   9]
    |psi|^2 = 0.998
==== e(   6) =     9.24134 eV ==== 
     psi = 0.634*[#   2]+0.301*[#   6]+0.059*[#   1]
    |psi|^2 = 0.996
==== e(   7) =    23.87056 eV ==== 
     psi = 0.389*[#   5]+0.227*[#   4]+0.055*[#   3]
    |psi|^2 = 0.671
==== e(   8) =    23.87056 eV ==== 
     psi = 0.331*[#   4]+0.280*[#   3]+0.058*[#   5]
    |psi|^2 = 0.671
==== e(   9) =    23.92080 eV ==== 
     psi = 0.359*[#   3]+0.240*[#   5]+0.120*[#   4]+0.003*[#   2]
    |psi|^2 = 0.723

 k =   0.0096225045 -0.0136082764  0.0166666667
==== e(   1) =   -40.45633 eV ==== 
     psi = 0.917*[#   1]+0.079*[#   2]+0.002*[#   3]+0.001*[#   5]
    |psi|^2 = 1.000
==== e(   2) =   -19.33369 eV ==== 
     psi = 0.697*[#   6]+0.277*[#   2]+0.023*[#   1]+0.002*[#   3]+0.001*[#   5]
          
    |psi|^2 = 1.000
==== e(   3) =     0.51518 eV ==== 
     psi = 0.498*[#   7]+0.332*[#   9]+0.166*[#   8]
    |psi|^2 = 0.998
==== e(   4) =     0.51972 eV ==== 
     psi = 0.659*[#   9]+0.298*[#   7]+0.041*[#   8]
    |psi|^2 = 0.998
==== e(   5) =     0.51972 eV ==== 
     psi = 0.790*[#   8]+0.201*[#   7]+0.006*[#   9]
    |psi|^2 = 0.998
==== e(   6) =     9.25010 eV ==== 
     psi = 0.628*[#   2]+0.301*[#   6]+0.059*[#   1]+0.004*[#   3]+0.002*[#   5]
          +0.001*[#   4]
    |psi|^2 = 0.996
==== e(   7) =    23.73449 eV ==== 
     psi = 0.336*[#   5]+0.238*[#   4]+0.037*[#   3]
    |psi|^2 = 0.611
==== e(   8) =    23.73449 eV ==== 
     psi = 0.271*[#   4]+0.268*[#   3]+0.071*[#   5]
    |psi|^2 = 0.611
==== e(   9) =    23.88675 eV ==== 
     psi = 0.352*[#   3]+0.234*[#   5]+0.117*[#   4]+0.010*[#   2]
    |psi|^2 = 0.715

 k =   0.0144337567 -0.0204124145  0.0250000000
==== e(   1) =   -40.45612 eV ==== 
     psi = 0.915*[#   1]+0.076*[#   2]+0.004*[#   3]+0.003*[#   5]+0.001*[#   4]
          
    |psi|^2 = 1.000
==== e(   2) =   -19.33198 eV ==== 
     psi = 0.697*[#   6]+0.272*[#   2]+0.023*[#   1]+0.004*[#   3]+0.003*[#   5]
          +0.001*[#   4]
    |psi|^2 = 1.000
==== e(   3) =     0.50619 eV ==== 
     psi = 0.497*[#   7]+0.332*[#   9]+0.166*[#   8]+0.002*[#   2]
    |psi|^2 = 0.998
==== e(   4) =     0.51640 eV ==== 
     psi = 0.659*[#   9]+0.298*[#   7]+0.041*[#   8]
    |psi|^2 = 0.998
==== e(   5) =     0.51640 eV ==== 
     psi = 0.790*[#   8]+0.201*[#   7]+0.006*[#   9]
    |psi|^2 = 0.998
==== e(   6) =     9.26469 eV ==== 
     psi = 0.618*[#   2]+0.300*[#   6]+0.059*[#   1]+0.008*[#   3]+0.005*[#   5]
          +0.003*[#   4]+0.001*[#   7]
    |psi|^2 = 0.996
==== e(   7) =    23.57489 eV ==== 
     psi = 0.306*[#   5]+0.252*[#   4]+0.026*[#   3]
    |psi|^2 = 0.585
==== e(   8) =    23.57489 eV ==== 
     psi = 0.266*[#   3]+0.235*[#   4]+0.083*[#   5]
    |psi|^2 = 0.585
==== e(   9) =    23.83104 eV ==== 
     psi = 0.339*[#   3]+0.226*[#   5]+0.113*[#   4]+0.022*[#   2]+0.001*[#   1]
          
    |psi|^2 = 0.703

 k =   0.0192450090 -0.0272165527  0.0333333333
==== e(   1) =   -40.45583 eV ==== 
     psi = 0.913*[#   1]+0.072*[#   2]+0.008*[#   3]+0.005*[#   5]+0.003*[#   4]
          
    |psi|^2 = 1.000
==== e(   2) =   -19.32959 eV ==== 
     psi = 0.697*[#   6]+0.267*[#   2]+0.023*[#   1]+0.007*[#   3]+0.004*[#   5]
          +0.002*[#   4]
    |psi|^2 = 1.000
==== e(   3) =     0.49363 eV ==== 
     psi = 0.496*[#   7]+0.331*[#   9]+0.165*[#   8]+0.003*[#   2]+0.001*[#   6]
          
    |psi|^2 = 0.998
==== e(   4) =     0.51177 eV ==== 
     psi = 0.658*[#   9]+0.298*[#   7]+0.041*[#   8]
    |psi|^2 = 0.998
==== e(   5) =     0.51177 eV ==== 
     psi = 0.790*[#   8]+0.201*[#   7]+0.006*[#   9]
    |psi|^2 = 0.998
==== e(   6) =     9.28507 eV ==== 
     psi = 0.604*[#   2]+0.300*[#   6]+0.060*[#   1]+0.014*[#   3]+0.009*[#   5]
          +0.005*[#   4]+0.002*[#   7]+0.001*[#   9]
    |psi|^2 = 0.996
==== e(   7) =    23.40979 eV ==== 
     psi = 0.293*[#   5]+0.265*[#   4]+0.021*[#   3]
    |psi|^2 = 0.580
==== e(   8) =    23.40979 eV ==== 
     psi = 0.269*[#   3]+0.217*[#   4]+0.093*[#   5]
    |psi|^2 = 0.580
==== e(   9) =    23.75508 eV ==== 
     psi = 0.323*[#   3]+0.215*[#   5]+0.108*[#   4]+0.037*[#   2]+0.002*[#   1]
          
    |psi|^2 = 0.687

 k =   0.0240562612 -0.0340206909  0.0416666667
==== e(   1) =   -40.45543 eV ==== 
     psi = 0.911*[#   1]+0.066*[#   2]+0.011*[#   3]+0.008*[#   5]+0.004*[#   4]
          
    |psi|^2 = 1.000
==== e(   2) =   -19.32652 eV ==== 
     psi = 0.697*[#   6]+0.260*[#   2]+0.023*[#   1]+0.010*[#   3]+0.007*[#   5]
          +0.003*[#   4]
    |psi|^2 = 1.000
==== e(   3) =     0.47755 eV ==== 
     psi = 0.495*[#   7]+0.330*[#   9]+0.165*[#   8]+0.005*[#   2]+0.002*[#   6]
          
    |psi|^2 = 0.998
==== e(   4) =     0.50584 eV ==== 
     psi = 0.658*[#   9]+0.298*[#   7]+0.041*[#   8]
    |psi|^2 = 0.998
==== e(   5) =     0.50584 eV ==== 
     psi = 0.790*[#   8]+0.201*[#   7]+0.006*[#   9]
    |psi|^2 = 0.998
==== e(   6) =     9.31122 eV ==== 
     psi = 0.588*[#   2]+0.299*[#   6]+0.060*[#   1]+0.021*[#   3]+0.014*[#   5]
          +0.007*[#   4]+0.003*[#   7]+0.002*[#   9]+0.001*[#   8]
    |psi|^2 = 0.996
==== e(   7) =    23.24532 eV ==== 
     psi = 0.289*[#   5]+0.278*[#   4]+0.018*[#   3]
    |psi|^2 = 0.587
==== e(   8) =    23.24532 eV ==== 
     psi = 0.274*[#   3]+0.210*[#   4]+0.101*[#   5]
    |psi|^2 = 0.587
==== e(   9) =    23.66071 eV ==== 
     psi = 0.304*[#   3]+0.203*[#   5]+0.101*[#   4]+0.055*[#   2]+0.004*[#   1]
          
    |psi|^2 = 0.668

 k =   0.0288675135 -0.0408248290  0.0500000000
==== e(   1) =   -40.45497 eV ==== 
     psi = 0.908*[#   1]+0.061*[#   2]+0.016*[#   3]+0.010*[#   5]+0.005*[#   4]
          
    |psi|^2 = 1.000
==== e(   2) =   -19.32277 eV ==== 
     psi = 0.697*[#   6]+0.252*[#   2]+0.023*[#   1]+0.014*[#   3]+0.009*[#   5]
          +0.005*[#   4]
    |psi|^2 = 1.000
==== e(   3) =     0.45796 eV ==== 
     psi = 0.494*[#   7]+0.329*[#   9]+0.165*[#   8]+0.007*[#   2]+0.003*[#   6]
          
    |psi|^2 = 0.998
==== e(   4) =     0.49863 eV ==== 
     psi = 0.658*[#   9]+0.298*[#   7]+0.041*[#   8]
    |psi|^2 = 0.998
==== e(   5) =     0.49863 eV ==== 
     psi = 0.790*[#   8]+0.201*[#   7]+0.006*[#   9]
    |psi|^2 = 0.998
==== e(   6) =     9.34307 eV ==== 
     psi = 0.569*[#   2]+0.298*[#   6]+0.060*[#   1]+0.029*[#   3]+0.020*[#   5]
          +0.010*[#   4]+0.005*[#   7]+0.003*[#   9]+0.002*[#   8]
    |psi|^2 = 0.996
==== e(   7) =    23.08393 eV ==== 
     psi = 0.292*[#   5]+0.289*[#   4]+0.017*[#   3]
    |psi|^2 = 0.599
==== e(   8) =    23.08393 eV ==== 
     psi = 0.282*[#   3]+0.210*[#   4]+0.107*[#   5]
    |psi|^2 = 0.599
==== e(   9) =    23.54995 eV ==== 
     psi = 0.284*[#   3]+0.189*[#   5]+0.095*[#   4]+0.075*[#   2]+0.005*[#   1]
          
    |psi|^2 = 0.648

 k =   0.0336787657 -0.0476289672  0.0583333333
==== e(   1) =   -40.45440 eV ==== 
     psi = 0.905*[#   1]+0.054*[#   2]+0.020*[#   3]+0.014*[#   5]+0.007*[#   4]
          
    |psi|^2 = 1.000
==== e(   2) =   -19.31835 eV ==== 
     psi = 0.697*[#   6]+0.243*[#   2]+0.023*[#   1]+0.019*[#   3]+0.012*[#   5]
          +0.006*[#   4]
    |psi|^2 = 1.000
==== e(   3) =     0.43491 eV ==== 
     psi = 0.492*[#   7]+0.328*[#   9]+0.164*[#   8]+0.009*[#   2]+0.004*[#   6]
          +0.001*[#   1]
    |psi|^2 = 0.998
==== e(   4) =     0.49016 eV ==== 
     psi = 0.658*[#   9]+0.298*[#   7]+0.041*[#   8]
    |psi|^2 = 0.998
==== e(   5) =     0.49016 eV ==== 
     psi = 0.790*[#   8]+0.201*[#   7]+0.006*[#   9]
    |psi|^2 = 0.998
==== e(   6) =     9.38059 eV ==== 
     psi = 0.547*[#   2]+0.297*[#   6]+0.061*[#   1]+0.039*[#   3]+0.026*[#   5]
          +0.013*[#   4]+0.007*[#   7]+0.004*[#   9]+0.002*[#   8]
    |psi|^2 = 0.995
==== e(   7) =    22.92675 eV ==== 
     psi = 0.299*[#   5]+0.298*[#   4]+0.017*[#   3]
    |psi|^2 = 0.616
==== e(   8) =    22.92675 eV ==== 
     psi = 0.290*[#   3]+0.213*[#   4]+0.111*[#   5]
    |psi|^2 = 0.616
==== e(   9) =    23.42500 eV ==== 
     psi = 0.262*[#   3]+0.175*[#   5]+0.095*[#   2]+0.087*[#   4]+0.006*[#   1]
          
    |psi|^2 = 0.627

 k =   0.0384900180 -0.0544331054  0.0666666667
==== e(   1) =   -40.45374 eV ==== 
     psi = 0.901*[#   1]+0.048*[#   2]+0.025*[#   3]+0.017*[#   5]+0.008*[#   4]
          
    |psi|^2 = 1.000
==== e(   2) =   -19.31326 eV ==== 
     psi = 0.698*[#   6]+0.233*[#   2]+0.023*[#   3]+0.023*[#   1]+0.015*[#   5]
          +0.008*[#   4]
    |psi|^2 = 1.000
==== e(   3) =     0.40847 eV ==== 
     psi = 0.490*[#   7]+0.327*[#   9]+0.163*[#   8]+0.012*[#   2]+0.005*[#   6]
          +0.002*[#   1]
    |psi|^2 = 0.998
==== e(   4) =     0.48045 eV ==== 
     psi = 0.658*[#   9]+0.297*[#   7]+0.041*[#   8]
    |psi|^2 = 0.998
==== e(   5) =     0.48045 eV ==== 
     psi = 0.789*[#   8]+0.201*[#   7]+0.006*[#   9]+0.001*[#   4]
    |psi|^2 = 0.998
==== e(   6) =     9.42372 eV ==== 
     psi = 0.524*[#   2]+0.296*[#   6]+0.061*[#   1]+0.049*[#   3]+0.033*[#   5]
          +0.016*[#   4]+0.008*[#   7]+0.006*[#   9]+0.003*[#   8]
    |psi|^2 = 0.995
==== e(   7) =    22.77435 eV ==== 
     psi = 0.308*[#   5]+0.306*[#   4]+0.018*[#   3]
    |psi|^2 = 0.634
==== e(   8) =    22.77435 eV ==== 
     psi = 0.298*[#   3]+0.220*[#   4]+0.113*[#   5]
    |psi|^2 = 0.634
==== e(   9) =    23.28621 eV ==== 

    |psi|^2 = 0.000

 k =   0.0433012702 -0.0612372436  0.0750000000
==== e(   1) =   -40.45302 eV ==== 
     psi = 0.898*[#   1]+0.042*[#   2]+0.030*[#   3]+0.020*[#   5]+0.010*[#   4]
          
    |psi|^2 = 1.000
==== e(   2) =   -19.30750 eV ==== 
     psi = 0.698*[#   6]+0.223*[#   2]+0.028*[#   3]+0.023*[#   1]+0.019*[#   5]
          +0.009*[#   4]
    |psi|^2 = 1.000
==== e(   3) =     0.37867 eV ==== 
     psi = 0.488*[#   7]+0.325*[#   9]+0.163*[#   8]+0.014*[#   2]+0.006*[#   6]
          +0.002*[#   1]
    |psi|^2 = 0.998
==== e(   4) =     0.46954 eV ==== 
     psi = 0.658*[#   9]+0.297*[#   7]+0.041*[#   8]+0.001*[#   5]
    |psi|^2 = 0.998
==== e(   5) =     0.46954 eV ==== 
     psi = 0.789*[#   8]+0.201*[#   7]+0.006*[#   9]+0.001*[#   4]
    |psi|^2 = 0.998
==== e(   6) =     9.47234 eV ==== 
     psi = 0.500*[#   2]+0.294*[#   6]+0.061*[#   1]+0.059*[#   3]+0.040*[#   5]
          +0.020*[#   4]+0.011*[#   7]+0.007*[#   9]+0.004*[#   8]
    |psi|^2 = 0.995
==== e(   7) =    22.62703 eV ==== 
     psi = 0.318*[#   5]+0.312*[#   4]+0.019*[#   3]+0.001*[#   8]+0.001*[#   9]
          
    |psi|^2 = 0.652
==== e(   8) =    22.62703 eV ==== 
     psi = 0.306*[#   3]+0.229*[#   4]+0.115*[#   5]+0.001*[#   7]
    |psi|^2 = 0.652
==== e(   9) =    23.06695 eV ==== 

    |psi|^2 = 0.000

 k =   0.0481125224 -0.0680413817  0.0833333333
==== e(   1) =   -40.45221 eV ==== 
     psi = 0.895*[#   1]+0.036*[#   2]+0.035*[#   3]+0.023*[#   5]+0.012*[#   4]
          
    |psi|^2 = 1.000
==== e(   2) =   -19.30108 eV ==== 
     psi = 0.698*[#   6]+0.213*[#   2]+0.033*[#   3]+0.023*[#   1]+0.022*[#   5]
          +0.011*[#   4]
    |psi|^2 = 1.000
==== e(   3) =     0.34560 eV ==== 
     psi = 0.485*[#   7]+0.324*[#   9]+0.162*[#   8]+0.017*[#   2]+0.007*[#   6]
          +0.002*[#   1]
    |psi|^2 = 0.998
==== e(   4) =     0.45745 eV ==== 
     psi = 0.658*[#   9]+0.297*[#   7]+0.041*[#   8]+0.001*[#   5]
    |psi|^2 = 0.998
==== e(   5) =     0.45746 eV ==== 
     psi = 0.789*[#   8]+0.201*[#   7]+0.006*[#   9]+0.002*[#   4]
    |psi|^2 = 0.998
==== e(   6) =     9.52640 eV ==== 
     psi = 0.474*[#   2]+0.292*[#   6]+0.070*[#   3]+0.062*[#   1]+0.047*[#   5]
          +0.023*[#   4]+0.013*[#   7]+0.009*[#   9]+0.004*[#   8]
    |psi|^2 = 0.995
==== e(   7) =    22.48495 eV ==== 
     psi = 0.330*[#   5]+0.317*[#   4]+0.021*[#   3]+0.001*[#   8]+0.001*[#   9]
          
    |psi|^2 = 0.671
==== e(   8) =    22.48495 eV ==== 
     psi = 0.313*[#   3]+0.240*[#   4]+0.115*[#   5]+0.001*[#   7]
    |psi|^2 = 0.671
==== e(   9) =    22.84614 eV ==== 

    |psi|^2 = 0.000

 k =   0.0529237747 -0.0748455199  0.0916666667
==== e(   1) =   -40.45131 eV ==== 
     psi = 0.891*[#   1]+0.039*[#   3]+0.030*[#   2]+0.026*[#   5]+0.013*[#   4]
          
    |psi|^2 = 1.000
==== e(   2) =   -19.29401 eV ==== 
     psi = 0.699*[#   6]+0.202*[#   2]+0.038*[#   3]+0.025*[#   5]+0.023*[#   1]
          +0.013*[#   4]
    |psi|^2 = 1.000
==== e(   3) =     0.30933 eV ==== 
     psi = 0.483*[#   7]+0.322*[#   9]+0.161*[#   8]+0.020*[#   2]+0.008*[#   6]
          +0.003*[#   1]
    |psi|^2 = 0.998
==== e(   4) =     0.44424 eV ==== 
     psi = 0.657*[#   9]+0.297*[#   7]+0.041*[#   8]+0.002*[#   5]
    |psi|^2 = 0.998
==== e(   5) =     0.44424 eV ==== 
     psi = 0.788*[#   8]+0.201*[#   7]+0.006*[#   9]+0.002*[#   4]
    |psi|^2 = 0.998
==== e(   6) =     9.58581 eV ==== 
     psi = 0.449*[#   2]+0.290*[#   6]+0.082*[#   3]+0.062*[#   1]+0.054*[#   5]
          +0.027*[#   4]+0.015*[#   7]+0.010*[#   9]+0.005*[#   8]
    |psi|^2 = 0.995
==== e(   7) =    22.34820 eV ==== 
     psi = 0.343*[#   5]+0.320*[#   4]+0.023*[#   3]+0.002*[#   9]+0.001*[#   8]
          
    |psi|^2 = 0.689
==== e(   8) =    22.34820 eV ==== 
     psi = 0.320*[#   3]+0.252*[#   4]+0.114*[#   5]+0.001*[#   7]+0.001*[#   8]
          
    |psi|^2 = 0.689
==== e(   9) =    22.62524 eV ==== 

    |psi|^2 = 0.000

 k =   0.0577350269 -0.0816496581  0.1000000000
==== e(   1) =   -40.45037 eV ==== 
     psi = 0.888*[#   1]+0.043*[#   3]+0.029*[#   5]+0.025*[#   2]+0.014*[#   4]
          
    |psi|^2 = 1.000
==== e(   2) =   -19.28629 eV ==== 
     psi = 0.700*[#   6]+0.192*[#   2]+0.043*[#   3]+0.029*[#   5]+0.022*[#   1]
          +0.014*[#   4]
    |psi|^2 = 1.000
==== e(   3) =     0.26992 eV ==== 
     psi = 0.480*[#   7]+0.320*[#   9]+0.160*[#   8]+0.022*[#   2]+0.010*[#   6]
          +0.003*[#   1]+0.001*[#   3]
    |psi|^2 = 0.998
==== e(   4) =     0.42992 eV ==== 
     psi = 0.657*[#   9]+0.297*[#   7]+0.041*[#   8]+0.002*[#   5]
    |psi|^2 = 0.998
==== e(   5) =     0.42992 eV ==== 
     psi = 0.788*[#   8]+0.201*[#   7]+0.006*[#   9]+0.003*[#   4]
    |psi|^2 = 0.998
==== e(   6) =     9.65043 eV ==== 
     psi = 0.423*[#   2]+0.288*[#   6]+0.093*[#   3]+0.062*[#   1]+0.062*[#   5]
          +0.031*[#   4]+0.018*[#   7]+0.012*[#   9]+0.006*[#   8]
    |psi|^2 = 0.995
==== e(   7) =    22.21679 eV ==== 
     psi = 0.355*[#   5]+0.321*[#   4]+0.026*[#   3]+0.002*[#   9]+0.002*[#   8]
          
    |psi|^2 = 0.706
==== e(   8) =    22.21679 eV ==== 
     psi = 0.325*[#   3]+0.264*[#   4]+0.113*[#   5]+0.002*[#   7]+0.001*[#   8]
          
    |psi|^2 = 0.706
==== e(   9) =    22.40532 eV ==== 

    |psi|^2 = 0.000

 k =   0.0625462791 -0.0884537962  0.1083333333
==== e(   1) =   -40.44934 eV ==== 
     psi = 0.885*[#   1]+0.047*[#   3]+0.031*[#   5]+0.020*[#   2]+0.016*[#   4]
          
    |psi|^2 = 1.000
==== e(   2) =   -19.27794 eV ==== 
     psi = 0.701*[#   6]+0.181*[#   2]+0.048*[#   3]+0.032*[#   5]+0.022*[#   1]
          +0.016*[#   4]
    |psi|^2 = 1.000
==== e(   3) =     0.22747 eV ==== 
     psi = 0.477*[#   7]+0.318*[#   9]+0.159*[#   8]+0.025*[#   2]+0.011*[#   6]
          +0.004*[#   1]+0.002*[#   3]+0.001*[#   5]
    |psi|^2 = 0.998
==== e(   4) =     0.41455 eV ==== 
     psi = 0.657*[#   9]+0.296*[#   7]+0.041*[#   8]+0.003*[#   5]+0.001*[#   3]
          
    |psi|^2 = 0.998
==== e(   5) =     0.41455 eV ==== 
     psi = 0.787*[#   8]+0.201*[#   7]+0.006*[#   9]+0.003*[#   4]
    |psi|^2 = 0.998
==== e(   6) =     9.72020 eV ==== 
     psi = 0.397*[#   2]+0.285*[#   6]+0.104*[#   3]+0.069*[#   5]+0.062*[#   1]
          +0.035*[#   4]+0.021*[#   7]+0.014*[#   9]+0.007*[#   8]
    |psi|^2 = 0.994
==== e(   7) =    22.09073 eV ==== 
     psi = 0.368*[#   5]+0.320*[#   4]+0.029*[#   3]+0.002*[#   9]+0.002*[#   8]
          
    |psi|^2 = 0.721
==== e(   8) =    22.09073 eV ==== 
     psi = 0.330*[#   3]+0.277*[#   4]+0.110*[#   5]+0.002*[#   7]+0.002*[#   8]
          
    |psi|^2 = 0.721
==== e(   9) =    22.18719 eV ==== 

    |psi|^2 = 0.000

 k =   0.0673575314 -0.0952579345  0.1166666667
==== e(   1) =   -40.44825 eV ==== 
     psi = 0.883*[#   1]+0.051*[#   3]+0.034*[#   5]+0.017*[#   4]+0.016*[#   2]
          
    |psi|^2 = 1.000
==== e(   2) =   -19.26896 eV ==== 
     psi = 0.702*[#   6]+0.171*[#   2]+0.052*[#   3]+0.035*[#   5]+0.022*[#   1]
          +0.017*[#   4]
    |psi|^2 = 1.000
==== e(   3) =     0.18209 eV ==== 
     psi = 0.475*[#   7]+0.316*[#   9]+0.158*[#   8]+0.027*[#   2]+0.013*[#   6]
          +0.004*[#   1]+0.002*[#   3]+0.002*[#   5]
    |psi|^2 = 0.998
==== e(   4) =     0.39818 eV ==== 
     psi = 0.656*[#   9]+0.296*[#   7]+0.041*[#   8]+0.003*[#   5]+0.001*[#   3]
          
    |psi|^2 = 0.998
==== e(   5) =     0.39818 eV ==== 
     psi = 0.787*[#   8]+0.201*[#   7]+0.006*[#   9]+0.004*[#   4]
    |psi|^2 = 0.998
==== e(   6) =     9.79497 eV ==== 
     psi = 0.372*[#   2]+0.282*[#   6]+0.115*[#   3]+0.077*[#   5]+0.062*[#   1]
          +0.038*[#   4]+0.024*[#   7]+0.016*[#   9]+0.008*[#   8]
    |psi|^2 = 0.994
==== e(   7) =    21.96999 eV ==== 
     psi = 0.381*[#   5]+0.319*[#   4]+0.032*[#   3]+0.003*[#   9]+0.002*[#   8]
          
    |psi|^2 = 0.736
==== e(   8) =    21.96999 eV ==== 
     psi = 0.334*[#   3]+0.290*[#   4]+0.107*[#   5]+0.002*[#   7]+0.002*[#   8]
          
    |psi|^2 = 0.736
==== e(   9) =    21.97146 eV ==== 

    |psi|^2 = 0.000

 k =   0.0721687836 -0.1020620726  0.1250000000
==== e(   1) =   -40.44711 eV ==== 
     psi = 0.880*[#   1]+0.053*[#   3]+0.036*[#   5]+0.018*[#   4]+0.012*[#   2]
          
    |psi|^2 = 1.000
==== e(   2) =   -19.25936 eV ==== 
     psi = 0.704*[#   6]+0.162*[#   2]+0.056*[#   3]+0.037*[#   5]+0.022*[#   1]
          +0.019*[#   4]
    |psi|^2 = 1.000
==== e(   3) =     0.13387 eV ==== 
     psi = 0.472*[#   7]+0.314*[#   9]+0.157*[#   8]+0.029*[#   2]+0.014*[#   6]
          +0.005*[#   1]+0.003*[#   3]+0.002*[#   5]+0.001*[#   4]
    |psi|^2 = 0.998
==== e(   4) =     0.38084 eV ==== 
     psi = 0.656*[#   9]+0.296*[#   7]+0.041*[#   8]+0.004*[#   5]+0.002*[#   3]
          
    |psi|^2 = 0.998
==== e(   5) =     0.38084 eV ==== 
     psi = 0.786*[#   8]+0.201*[#   7]+0.006*[#   9]+0.004*[#   4]+0.001*[#   3]
          
    |psi|^2 = 0.998
==== e(   6) =     9.87463 eV ==== 
     psi = 0.348*[#   2]+0.279*[#   6]+0.126*[#   3]+0.084*[#   5]+0.062*[#   1]
          +0.042*[#   4]+0.026*[#   7]+0.018*[#   9]+0.009*[#   8]
    |psi|^2 = 0.994
==== e(   7) =    21.75859 eV ==== 

    |psi|^2 = 0.000
==== e(   8) =    21.85453 eV ==== 
     psi = 0.393*[#   5]+0.316*[#   4]+0.035*[#   3]+0.003*[#   9]+0.002*[#   8]
          
    |psi|^2 = 0.749
==== e(   9) =    21.85453 eV ==== 
     psi = 0.336*[#   3]+0.304*[#   4]+0.103*[#   5]+0.003*[#   7]+0.002*[#   8]
          
    |psi|^2 = 0.749

 k =   0.0769800359 -0.1088662108  0.1333333333
==== e(   1) =   -40.44589 eV ==== 
     psi = 0.878*[#   1]+0.056*[#   3]+0.037*[#   5]+0.019*[#   4]+0.009*[#   2]
          
    |psi|^2 = 1.000
==== e(   2) =   -19.24915 eV ==== 
     psi = 0.706*[#   6]+0.152*[#   2]+0.060*[#   3]+0.040*[#   5]+0.021*[#   1]
          +0.020*[#   4]
    |psi|^2 = 1.000
==== e(   3) =     0.08292 eV ==== 
     psi = 0.469*[#   7]+0.312*[#   9]+0.156*[#   8]+0.031*[#   2]+0.016*[#   6]
          +0.005*[#   1]+0.004*[#   3]+0.003*[#   5]+0.001*[#   4]
    |psi|^2 = 0.998
==== e(   4) =     0.36259 eV ==== 
     psi = 0.655*[#   9]+0.295*[#   7]+0.041*[#   8]+0.004*[#   5]+0.002*[#   3]
          
    |psi|^2 = 0.998
==== e(   5) =     0.36259 eV ==== 
     psi = 0.785*[#   8]+0.200*[#   7]+0.006*[#   9]+0.005*[#   4]+0.001*[#   3]
          
    |psi|^2 = 0.998
==== e(   6) =     9.95905 eV ==== 
     psi = 0.324*[#   2]+0.276*[#   6]+0.136*[#   3]+0.091*[#   5]+0.062*[#   1]
          +0.045*[#   4]+0.029*[#   7]+0.020*[#   9]+0.010*[#   8]
    |psi|^2 = 0.994
==== e(   7) =    21.54895 eV ==== 

    |psi|^2 = 0.000
==== e(   8) =    21.74428 eV ==== 
     psi = 0.404*[#   5]+0.311*[#   4]+0.039*[#   3]+0.004*[#   9]+0.003*[#   8]
          
    |psi|^2 = 0.761
==== e(   9) =    21.74428 eV ==== 
     psi = 0.338*[#   3]+0.317*[#   4]+0.099*[#   5]+0.003*[#   7]+0.003*[#   8]
          
    |psi|^2 = 0.761

 k =   0.0817912882 -0.1156703490  0.1416666667
==== e(   1) =   -40.44461 eV ==== 
     psi = 0.877*[#   1]+0.058*[#   3]+0.039*[#   5]+0.019*[#   4]+0.006*[#   2]
          
    |psi|^2 = 1.000
==== e(   2) =   -19.23836 eV ==== 
     psi = 0.708*[#   6]+0.144*[#   2]+0.064*[#   3]+0.042*[#   5]+0.021*[#   4]
          +0.021*[#   1]
    |psi|^2 = 1.000
==== e(   3) =     0.02936 eV ==== 
     psi = 0.465*[#   7]+0.310*[#   9]+0.155*[#   8]+0.033*[#   2]+0.017*[#   6]
          +0.006*[#   1]+0.006*[#   3]+0.004*[#   5]+0.002*[#   4]
    |psi|^2 = 0.998
==== e(   4) =     0.34349 eV ==== 
     psi = 0.654*[#   9]+0.295*[#   7]+0.041*[#   8]+0.005*[#   5]+0.002*[#   3]
          
    |psi|^2 = 0.998
==== e(   5) =     0.34349 eV ==== 
     psi = 0.784*[#   8]+0.200*[#   7]+0.006*[#   9]+0.006*[#   4]+0.001*[#   3]
          
    |psi|^2 = 0.998
==== e(   6) =    10.04810 eV ==== 
     psi = 0.302*[#   2]+0.272*[#   6]+0.146*[#   3]+0.098*[#   5]+0.062*[#   1]
          +0.049*[#   4]+0.032*[#   7]+0.022*[#   9]+0.011*[#   8]
    |psi|^2 = 0.994
==== e(   7) =    21.34282 eV ==== 

    |psi|^2 = 0.000
==== e(   8) =    21.63918 eV ==== 
     psi = 0.415*[#   5]+0.306*[#   4]+0.043*[#   3]+0.004*[#   9]+0.003*[#   8]
          
    |psi|^2 = 0.772
==== e(   9) =    21.63918 eV ==== 
     psi = 0.339*[#   3]+0.330*[#   4]+0.094*[#   5]+0.003*[#   7]+0.003*[#   8]
          
    |psi|^2 = 0.772

 k =   0.0866025404 -0.1224744871  0.1500000000
==== e(   1) =   -40.44328 eV ==== 
     psi = 0.875*[#   1]+0.060*[#   3]+0.040*[#   5]+0.020*[#   4]+0.004*[#   2]
          
    |psi|^2 = 1.000
==== e(   2) =   -19.22699 eV ==== 
     psi = 0.711*[#   6]+0.135*[#   2]+0.067*[#   3]+0.045*[#   5]+0.022*[#   4]
          +0.020*[#   1]
    |psi|^2 = 1.000
==== e(   3) =    -0.02669 eV ==== 
     psi = 0.462*[#   7]+0.308*[#   9]+0.154*[#   8]+0.034*[#   2]+0.019*[#   6]
          +0.007*[#   3]+0.007*[#   1]+0.005*[#   5]+0.002*[#   4]
    |psi|^2 = 0.998
==== e(   4) =     0.32359 eV ==== 
     psi = 0.654*[#   9]+0.295*[#   7]+0.041*[#   8]+0.006*[#   5]+0.003*[#   3]
          
    |psi|^2 = 0.998
==== e(   5) =     0.32359 eV ==== 
     psi = 0.783*[#   8]+0.200*[#   7]+0.007*[#   4]+0.006*[#   9]+0.002*[#   3]
          
    |psi|^2 = 0.998
==== e(   6) =    10.14162 eV ==== 
     psi = 0.280*[#   2]+0.268*[#   6]+0.156*[#   3]+0.104*[#   5]+0.062*[#   1]
          +0.052*[#   4]+0.036*[#   7]+0.024*[#   9]+0.012*[#   8]
    |psi|^2 = 0.993
==== e(   7) =    21.14043 eV ==== 

    |psi|^2 = 0.000
==== e(   8) =    21.53915 eV ==== 
     psi = 0.425*[#   5]+0.300*[#   4]+0.047*[#   3]+0.005*[#   9]+0.003*[#   8]
          
    |psi|^2 = 0.781
==== e(   9) =    21.53915 eV ==== 
     psi = 0.343*[#   4]+0.340*[#   3]+0.090*[#   5]+0.004*[#   7]+0.004*[#   8]
          +0.001*[#   9]
    |psi|^2 = 0.781

 k =   0.0914137926 -0.1292786253  0.1583333333
==== e(   1) =   -40.44193 eV ==== 
     psi = 0.875*[#   1]+0.061*[#   3]+0.041*[#   5]+0.020*[#   4]+0.003*[#   2]
          
    |psi|^2 = 1.000
==== e(   2) =   -19.21506 eV ==== 
     psi = 0.714*[#   6]+0.127*[#   2]+0.070*[#   3]+0.046*[#   5]+0.023*[#   4]
          +0.020*[#   1]
    |psi|^2 = 1.000
==== e(   3) =    -0.08509 eV ==== 
     psi = 0.459*[#   7]+0.306*[#   9]+0.153*[#   8]+0.034*[#   2]+0.020*[#   6]
          +0.009*[#   3]+0.007*[#   1]+0.006*[#   5]+0.003*[#   4]
    |psi|^2 = 0.998
==== e(   4) =     0.30294 eV ==== 
     psi = 0.653*[#   9]+0.294*[#   7]+0.041*[#   8]+0.006*[#   5]+0.003*[#   3]
          
    |psi|^2 = 0.998
==== e(   5) =     0.30294 eV ==== 
     psi = 0.783*[#   8]+0.200*[#   7]+0.008*[#   4]+0.006*[#   9]+0.002*[#   3]
          
    |psi|^2 = 0.998
==== e(   6) =    10.23946 eV ==== 
     psi = 0.263*[#   6]+0.260*[#   2]+0.165*[#   3]+0.110*[#   5]+0.062*[#   1]
          +0.055*[#   4]+0.039*[#   7]+0.026*[#   9]+0.013*[#   8]
    |psi|^2 = 0.993
==== e(   7) =    20.94197 eV ==== 

    |psi|^2 = 0.000
==== e(   8) =    21.44410 eV ==== 
     psi = 0.451*[#   5]+0.266*[#   4]+0.063*[#   3]+0.006*[#   9]+0.003*[#   8]
          
    |psi|^2 = 0.790
==== e(   9) =    21.44410 eV ==== 
     psi = 0.384*[#   4]+0.327*[#   3]+0.069*[#   5]+0.005*[#   8]+0.004*[#   7]
          
    |psi|^2 = 0.790

 k =   0.0962250449 -0.1360827635  0.1666666667
==== e(   1) =   -40.44053 eV ==== 
     psi = 0.874*[#   1]+0.062*[#   3]+0.041*[#   5]+0.021*[#   4]+0.002*[#   2]
          
    |psi|^2 = 1.000
==== e(   2) =   -19.20259 eV ==== 
     psi = 0.717*[#   6]+0.120*[#   2]+0.072*[#   3]+0.048*[#   5]+0.024*[#   4]
          +0.019*[#   1]
    |psi|^2 = 1.000
==== e(   3) =    -0.14572 eV ==== 
     psi = 0.456*[#   7]+0.304*[#   9]+0.152*[#   8]+0.035*[#   2]+0.021*[#   6]
          +0.011*[#   3]+0.008*[#   1]+0.007*[#   5]+0.004*[#   4]
    |psi|^2 = 0.998
==== e(   4) =     0.28161 eV ==== 
     psi = 0.652*[#   9]+0.294*[#   7]+0.041*[#   8]+0.007*[#   5]+0.003*[#   3]
          
    |psi|^2 = 0.998
==== e(   5) =     0.28161 eV ==== 
     psi = 0.781*[#   8]+0.200*[#   7]+0.009*[#   4]+0.006*[#   9]+0.002*[#   3]
          
    |psi|^2 = 0.998
==== e(   6) =    10.34148 eV ==== 
     psi = 0.259*[#   6]+0.241*[#   2]+0.174*[#   3]+0.116*[#   5]+0.061*[#   1]
          +0.058*[#   4]+0.042*[#   7]+0.028*[#   9]+0.014*[#   8]
    |psi|^2 = 0.993
==== e(   7) =    20.74759 eV ==== 

    |psi|^2 = 0.000
==== e(   8) =    21.30144 eV ==== 
     psi = 0.382*[#   2]+0.101*[#   3]+0.068*[#   5]+0.034*[#   4]+0.020*[#   1]
          
    |psi|^2 = 0.607
==== e(   9) =    21.35394 eV ==== 
     psi = 0.399*[#   4]+0.225*[#   3]+0.163*[#   5]+0.006*[#   8]+0.003*[#   7]
          +0.002*[#   9]
    |psi|^2 = 0.798

 k =   0.1010362971 -0.1428869017  0.1750000000
==== e(   1) =   -40.43907 eV ==== 
     psi = 0.874*[#   1]+0.062*[#   3]+0.041*[#   5]+0.021*[#   4]
    |psi|^2 = 1.000
==== e(   2) =   -19.18960 eV ==== 
     psi = 0.720*[#   6]+0.112*[#   2]+0.074*[#   3]+0.049*[#   5]+0.025*[#   4]
          +0.019*[#   1]
    |psi|^2 = 1.000
==== e(   3) =    -0.20841 eV ==== 
     psi = 0.453*[#   7]+0.302*[#   9]+0.151*[#   8]+0.035*[#   2]+0.023*[#   6]
          +0.013*[#   3]+0.009*[#   5]+0.008*[#   1]+0.004*[#   4]
    |psi|^2 = 0.998
==== e(   4) =     0.25967 eV ==== 
     psi = 0.652*[#   9]+0.293*[#   7]+0.041*[#   8]+0.008*[#   5]+0.004*[#   3]
          
    |psi|^2 = 0.998
==== e(   5) =     0.25967 eV ==== 
     psi = 0.780*[#   8]+0.200*[#   7]+0.010*[#   4]+0.006*[#   9]+0.002*[#   3]
          
    |psi|^2 = 0.998
==== e(   6) =    10.44752 eV ==== 
     psi = 0.254*[#   6]+0.223*[#   2]+0.183*[#   3]+0.122*[#   5]+0.061*[#   4]
          +0.060*[#   1]+0.045*[#   7]+0.030*[#   9]+0.015*[#   8]
    |psi|^2 = 0.993
==== e(   7) =    20.55742 eV ==== 

    |psi|^2 = 0.000
==== e(   8) =    21.13931 eV ==== 
     psi = 0.413*[#   2]+0.097*[#   3]+0.065*[#   5]+0.032*[#   4]+0.022*[#   1]
          
    |psi|^2 = 0.631
==== e(   9) =    21.26857 eV ==== 
     psi = 0.524*[#   4]+0.250*[#   3]+0.019*[#   5]+0.008*[#   8]+0.004*[#   7]
          
    |psi|^2 = 0.805

 k =   0.1058475493 -0.1496910398  0.1833333333
==== e(   1) =   -40.43758 eV ==== 
     psi = 0.874*[#   1]+0.062*[#   3]+0.042*[#   5]+0.021*[#   4]
    |psi|^2 = 1.000
==== e(   2) =   -19.17612 eV ==== 
     psi = 0.724*[#   6]+0.106*[#   2]+0.076*[#   3]+0.051*[#   5]+0.025*[#   4]
          +0.018*[#   1]
    |psi|^2 = 1.000
==== e(   3) =    -0.27303 eV ==== 
     psi = 0.450*[#   7]+0.300*[#   9]+0.150*[#   8]+0.034*[#   2]+0.024*[#   6]
          +0.015*[#   3]+0.010*[#   5]+0.009*[#   1]+0.005*[#   4]
    |psi|^2 = 0.998
==== e(   4) =     0.23717 eV ==== 
     psi = 0.651*[#   9]+0.293*[#   7]+0.041*[#   8]+0.009*[#   5]+0.004*[#   3]
          
    |psi|^2 = 0.998
==== e(   5) =     0.23717 eV ==== 
     psi = 0.779*[#   8]+0.200*[#   7]+0.011*[#   4]+0.006*[#   9]+0.003*[#   3]
          
    |psi|^2 = 0.998
==== e(   6) =    10.55741 eV ==== 
     psi = 0.248*[#   6]+0.206*[#   2]+0.191*[#   3]+0.127*[#   5]+0.064*[#   4]
          +0.060*[#   1]+0.048*[#   7]+0.032*[#   9]+0.016*[#   8]
    |psi|^2 = 0.993
==== e(   7) =    20.37155 eV ==== 

    |psi|^2 = 0.000
==== e(   8) =    20.98043 eV ==== 
     psi = 0.443*[#   2]+0.094*[#   3]+0.062*[#   5]+0.031*[#   4]+0.023*[#   1]
          
    |psi|^2 = 0.655
==== e(   9) =    21.18788 eV ==== 
     psi = 0.531*[#   5]+0.220*[#   3]+0.048*[#   4]+0.009*[#   9]+0.004*[#   7]
          
    |psi|^2 = 0.812

 k =   0.1106588016 -0.1564951780  0.1916666667
==== e(   1) =   -40.43603 eV ==== 
     psi = 0.875*[#   1]+0.062*[#   3]+0.041*[#   5]+0.021*[#   4]
    |psi|^2 = 1.000
==== e(   2) =   -19.16215 eV ==== 
     psi = 0.728*[#   6]+0.100*[#   2]+0.077*[#   3]+0.051*[#   5]+0.026*[#   4]
          +0.017*[#   1]
    |psi|^2 = 1.000
==== e(   3) =    -0.33941 eV ==== 
     psi = 0.447*[#   7]+0.298*[#   9]+0.149*[#   8]+0.033*[#   2]+0.025*[#   6]
          +0.018*[#   3]+0.012*[#   5]+0.010*[#   1]+0.006*[#   4]
    |psi|^2 = 0.997
==== e(   4) =     0.21418 eV ==== 
     psi = 0.650*[#   9]+0.292*[#   7]+0.041*[#   8]+0.010*[#   5]+0.004*[#   3]
          
    |psi|^2 = 0.998
==== e(   5) =     0.21418 eV ==== 
     psi = 0.778*[#   8]+0.200*[#   7]+0.012*[#   4]+0.006*[#   9]+0.003*[#   3]
          
    |psi|^2 = 0.998
==== e(   6) =    10.67099 eV ==== 
     psi = 0.243*[#   6]+0.199*[#   3]+0.191*[#   2]+0.133*[#   5]+0.066*[#   4]
          +0.059*[#   1]+0.051*[#   7]+0.034*[#   9]+0.017*[#   8]
    |psi|^2 = 0.993
==== e(   7) =    20.19007 eV ==== 

    |psi|^2 = 0.000
==== e(   8) =    20.82508 eV ==== 
     psi = 0.474*[#   2]+0.090*[#   3]+0.060*[#   5]+0.030*[#   4]+0.024*[#   1]
          +0.001*[#   6]
    |psi|^2 = 0.680
==== e(   9) =    21.11177 eV ==== 
     psi = 0.310*[#   5]+0.248*[#   3]+0.246*[#   4]+0.006*[#   9]+0.005*[#   7]
          +0.005*[#   8]
    |psi|^2 = 0.819

 k =   0.1154700538 -0.1632993162  0.2000000000
==== e(   1) =   -40.43449 eV ==== 
     psi = 0.876*[#   1]+0.062*[#   3]+0.041*[#   5]+0.021*[#   4]
    |psi|^2 = 1.000
==== e(   2) =   -19.14775 eV ==== 
     psi = 0.733*[#   6]+0.094*[#   2]+0.078*[#   3]+0.052*[#   5]+0.026*[#   4]
          +0.017*[#   1]
    |psi|^2 = 1.000
==== e(   3) =    -0.40740 eV ==== 
     psi = 0.444*[#   7]+0.296*[#   9]+0.148*[#   8]+0.032*[#   2]+0.026*[#   6]
          +0.021*[#   3]+0.014*[#   5]+0.010*[#   1]+0.007*[#   4]
    |psi|^2 = 0.997
==== e(   4) =     0.19076 eV ==== 
     psi = 0.649*[#   9]+0.292*[#   7]+0.042*[#   8]+0.011*[#   5]+0.005*[#   3]
          
    |psi|^2 = 0.998
==== e(   5) =     0.19076 eV ==== 
     psi = 0.777*[#   8]+0.199*[#   7]+0.013*[#   4]+0.006*[#   9]+0.003*[#   3]
          
    |psi|^2 = 0.998
==== e(   6) =    10.78805 eV ==== 
     psi = 0.237*[#   6]+0.206*[#   3]+0.177*[#   2]+0.138*[#   5]+0.069*[#   4]
          +0.058*[#   1]+0.054*[#   7]+0.036*[#   9]+0.018*[#   8]
    |psi|^2 = 0.993
==== e(   7) =    20.01306 eV ==== 

    |psi|^2 = 0.000
==== e(   8) =    20.67342 eV ==== 
     psi = 0.505*[#   2]+0.086*[#   3]+0.058*[#   5]+0.029*[#   4]+0.025*[#   1]
          +0.001*[#   6]
    |psi|^2 = 0.705
==== e(   9) =    21.04010 eV ==== 
     psi = 0.523*[#   4]+0.239*[#   3]+0.047*[#   5]+0.010*[#   8]+0.005*[#   7]
          
    |psi|^2 = 0.825

 k =   0.1202813061 -0.1701034543  0.2083333333
==== e(   1) =   -40.43290 eV ==== 
     psi = 0.877*[#   1]+0.061*[#   3]+0.041*[#   5]+0.020*[#   4]
    |psi|^2 = 1.000
==== e(   2) =   -19.13292 eV ==== 
     psi = 0.738*[#   6]+0.088*[#   2]+0.079*[#   3]+0.053*[#   5]+0.026*[#   4]
          +0.016*[#   1]
    |psi|^2 = 1.000
==== e(   3) =    -0.47681 eV ==== 
     psi = 0.441*[#   7]+0.294*[#   9]+0.147*[#   8]+0.031*[#   2]+0.027*[#   6]
          +0.023*[#   3]+0.016*[#   5]+0.011*[#   1]+0.008*[#   4]
    |psi|^2 = 0.997
==== e(   4) =     0.16699 eV ==== 
     psi = 0.648*[#   9]+0.291*[#   7]+0.042*[#   8]+0.012*[#   5]+0.005*[#   3]
          
    |psi|^2 = 0.998
==== e(   5) =     0.16699 eV ==== 
     psi = 0.776*[#   8]+0.199*[#   7]+0.014*[#   4]+0.006*[#   9]+0.004*[#   3]
          
    |psi|^2 = 0.998
==== e(   6) =    10.90844 eV ==== 
     psi = 0.231*[#   6]+0.213*[#   3]+0.164*[#   2]+0.142*[#   5]+0.071*[#   4]
          +0.057*[#   7]+0.057*[#   1]+0.038*[#   9]+0.019*[#   8]
    |psi|^2 = 0.993
==== e(   7) =    19.84057 eV ==== 

    |psi|^2 = 0.000
==== e(   8) =    20.52562 eV ==== 
     psi = 0.535*[#   2]+0.083*[#   3]+0.055*[#   5]+0.028*[#   4]+0.026*[#   1]
          +0.002*[#   6]
    |psi|^2 = 0.730
==== e(   9) =    20.97277 eV ==== 
     psi = 0.542*[#   5]+0.210*[#   3]+0.062*[#   4]+0.012*[#   9]+0.005*[#   7]
          +0.001*[#   8]
    |psi|^2 = 0.831

 k =   0.1250925583 -0.1769075926  0.2166666667
==== e(   1) =   -40.43131 eV ==== 
     psi = 0.879*[#   1]+0.060*[#   3]+0.040*[#   5]+0.020*[#   4]
    |psi|^2 = 1.000
==== e(   2) =   -19.11771 eV ==== 
     psi = 0.743*[#   6]+0.083*[#   2]+0.079*[#   3]+0.053*[#   5]+0.026*[#   4]
          +0.015*[#   1]
    |psi|^2 = 1.000
==== e(   3) =    -0.54748 eV ==== 
     psi = 0.438*[#   7]+0.292*[#   9]+0.146*[#   8]+0.029*[#   2]+0.028*[#   6]
          +0.026*[#   3]+0.018*[#   5]+0.011*[#   1]+0.009*[#   4]
    |psi|^2 = 0.997
==== e(   4) =     0.14292 eV ==== 
     psi = 0.647*[#   9]+0.291*[#   7]+0.042*[#   8]+0.013*[#   5]+0.006*[#   3]
          
    |psi|^2 = 0.998
==== e(   5) =     0.14292 eV ==== 
     psi = 0.774*[#   8]+0.199*[#   7]+0.015*[#   4]+0.006*[#   9]+0.004*[#   3]
          
    |psi|^2 = 0.998
==== e(   6) =    11.03193 eV ==== 
     psi = 0.225*[#   6]+0.220*[#   3]+0.152*[#   2]+0.147*[#   5]+0.073*[#   4]
          +0.060*[#   7]+0.055*[#   1]+0.040*[#   9]+0.020*[#   8]
    |psi|^2 = 0.993
==== e(   7) =    19.67266 eV ==== 

    |psi|^2 = 0.000
==== e(   8) =    20.38177 eV ==== 
     psi = 0.564*[#   2]+0.079*[#   3]+0.053*[#   5]+0.027*[#   1]+0.026*[#   4]
          +0.002*[#   6]
    |psi|^2 = 0.752
==== e(   9) =    20.90965 eV ==== 
     psi = 0.416*[#   5]+0.353*[#   4]+0.050*[#   3]+0.010*[#   9]+0.008*[#   8]
          +0.001*[#   7]
    |psi|^2 = 0.837

 k =   0.1299038106 -0.1837117307  0.2250000000
==== e(   1) =   -40.42974 eV ==== 
     psi = 0.881*[#   1]+0.058*[#   3]+0.039*[#   5]+0.019*[#   4]+0.001*[#   2]
          
    |psi|^2 = 1.000
==== e(   2) =   -19.10215 eV ==== 
     psi = 0.749*[#   6]+0.079*[#   3]+0.078*[#   2]+0.053*[#   5]+0.026*[#   4]
          +0.014*[#   1]
    |psi|^2 = 1.000
==== e(   3) =    -0.61922 eV ==== 
     psi = 0.435*[#   7]+0.290*[#   9]+0.145*[#   8]+0.029*[#   3]+0.028*[#   6]
          +0.028*[#   2]+0.020*[#   5]+0.012*[#   1]+0.010*[#   4]
    |psi|^2 = 0.997
==== e(   4) =     0.11862 eV ==== 
     psi = 0.646*[#   9]+0.290*[#   7]+0.042*[#   8]+0.014*[#   5]+0.006*[#   3]
          
    |psi|^2 = 0.998
==== e(   5) =     0.11862 eV ==== 
     psi = 0.773*[#   8]+0.199*[#   7]+0.016*[#   4]+0.006*[#   9]+0.004*[#   3]
          
    |psi|^2 = 0.998
==== e(   6) =    11.15834 eV ==== 
     psi = 0.227*[#   3]+0.219*[#   6]+0.151*[#   5]+0.141*[#   2]+0.076*[#   4]
          +0.063*[#   7]+0.054*[#   1]+0.042*[#   9]+0.021*[#   8]
    |psi|^2 = 0.993
==== e(   7) =    19.50938 eV ==== 

    |psi|^2 = 0.000
==== e(   8) =    20.24189 eV ==== 
     psi = 0.592*[#   2]+0.076*[#   3]+0.050*[#   5]+0.028*[#   1]+0.025*[#   4]
          +0.002*[#   6]
    |psi|^2 = 0.774
==== e(   9) =    20.85060 eV ==== 
     psi = 0.375*[#   3]+0.242*[#   4]+0.206*[#   5]+0.009*[#   7]+0.006*[#   8]
          +0.005*[#   9]
    |psi|^2 = 0.843

 k =   0.1347150628 -0.1905158689  0.2333333333
==== e(   1) =   -40.42813 eV ==== 
     psi = 0.884*[#   1]+0.057*[#   3]+0.038*[#   5]+0.019*[#   4]+0.002*[#   2]
          
    |psi|^2 = 1.000
==== e(   2) =   -19.08626 eV ==== 
     psi = 0.755*[#   6]+0.079*[#   3]+0.074*[#   2]+0.053*[#   5]+0.026*[#   4]
          +0.014*[#   1]
    |psi|^2 = 1.000
==== e(   3) =    -0.69185 eV ==== 
     psi = 0.433*[#   7]+0.288*[#   9]+0.144*[#   8]+0.033*[#   3]+0.029*[#   6]
          +0.026*[#   2]+0.022*[#   5]+0.012*[#   1]+0.011*[#   4]
    |psi|^2 = 0.997
==== e(   4) =     0.09417 eV ==== 
     psi = 0.645*[#   9]+0.289*[#   7]+0.042*[#   8]+0.015*[#   5]+0.007*[#   3]
          
    |psi|^2 = 0.998
==== e(   5) =     0.09417 eV ==== 
     psi = 0.772*[#   8]+0.199*[#   7]+0.018*[#   4]+0.006*[#   9]+0.005*[#   3]
          
    |psi|^2 = 0.998
==== e(   6) =    11.28748 eV ==== 
     psi = 0.233*[#   3]+0.212*[#   6]+0.155*[#   5]+0.131*[#   2]+0.078*[#   4]
          +0.066*[#   7]+0.052*[#   1]+0.044*[#   9]+0.022*[#   8]
    |psi|^2 = 0.993
==== e(   7) =    19.35075 eV ==== 

    |psi|^2 = 0.000
==== e(   8) =    20.10604 eV ==== 
     psi = 0.618*[#   2]+0.072*[#   3]+0.048*[#   5]+0.029*[#   1]+0.024*[#   4]
          +0.002*[#   6]
    |psi|^2 = 0.794
==== e(   9) =    20.79550 eV ==== 
     psi = 0.387*[#   5]+0.340*[#   3]+0.100*[#   4]+0.010*[#   9]+0.009*[#   7]
          +0.003*[#   8]
    |psi|^2 = 0.850

 k =   0.1395263151 -0.1973200071  0.2416666667
==== e(   1) =   -40.42651 eV ==== 
     psi = 0.886*[#   1]+0.055*[#   3]+0.037*[#   5]+0.018*[#   4]+0.002*[#   2]
          
    |psi|^2 = 1.000
==== e(   2) =   -19.07010 eV ==== 
     psi = 0.761*[#   6]+0.078*[#   3]+0.070*[#   2]+0.052*[#   5]+0.026*[#   4]
          +0.013*[#   1]
    |psi|^2 = 1.000
==== e(   3) =    -0.76516 eV ==== 
     psi = 0.430*[#   7]+0.287*[#   9]+0.143*[#   8]+0.036*[#   3]+0.029*[#   6]
          +0.024*[#   2]+0.024*[#   5]+0.012*[#   1]+0.012*[#   4]
    |psi|^2 = 0.998
==== e(   4) =     0.06964 eV ==== 
     psi = 0.644*[#   9]+0.289*[#   7]+0.042*[#   8]+0.016*[#   5]+0.007*[#   3]
          +0.001*[#   4]
    |psi|^2 = 0.998
==== e(   5) =     0.06964 eV ==== 
     psi = 0.771*[#   8]+0.198*[#   7]+0.019*[#   4]+0.006*[#   9]+0.005*[#   3]
          
    |psi|^2 = 0.998
==== e(   6) =    11.41914 eV ==== 
     psi = 0.239*[#   3]+0.205*[#   6]+0.159*[#   5]+0.123*[#   2]+0.080*[#   4]
          +0.069*[#   7]+0.050*[#   1]+0.046*[#   9]+0.023*[#   8]
    |psi|^2 = 0.993
==== e(   7) =    19.19682 eV ==== 

    |psi|^2 = 0.000
==== e(   8) =    19.97419 eV ==== 
     psi = 0.642*[#   2]+0.069*[#   3]+0.046*[#   5]+0.030*[#   1]+0.023*[#   4]
          +0.002*[#   6]
    |psi|^2 = 0.812
==== e(   9) =    20.74421 eV ==== 
     psi = 0.346*[#   3]+0.253*[#   4]+0.234*[#   5]+0.010*[#   7]+0.007*[#   8]
          +0.007*[#   9]
    |psi|^2 = 0.856

 k =   0.1443375673 -0.2041241452  0.2500000000
==== e(   1) =   -40.42489 eV ==== 
     psi = 0.889*[#   1]+0.054*[#   3]+0.036*[#   5]+0.018*[#   4]+0.003*[#   2]
          
    |psi|^2 = 1.000
==== e(   2) =   -19.05369 eV ==== 
     psi = 0.768*[#   6]+0.077*[#   3]+0.066*[#   2]+0.051*[#   5]+0.026*[#   4]
          +0.012*[#   1]
    |psi|^2 = 1.000
==== e(   3) =    -0.83898 eV ==== 
     psi = 0.428*[#   7]+0.285*[#   9]+0.143*[#   8]+0.039*[#   3]+0.029*[#   6]
          +0.026*[#   5]+0.022*[#   2]+0.013*[#   4]+0.013*[#   1]
    |psi|^2 = 0.998
==== e(   4) =     0.04508 eV ==== 
     psi = 0.643*[#   9]+0.288*[#   7]+0.042*[#   8]+0.017*[#   5]+0.007*[#   3]
          +0.001*[#   4]
    |psi|^2 = 0.998
==== e(   5) =     0.04508 eV ==== 
     psi = 0.769*[#   8]+0.198*[#   7]+0.020*[#   4]+0.006*[#   9]+0.005*[#   3]
          
    |psi|^2 = 0.998
==== e(   6) =    11.55310 eV ==== 
     psi = 0.245*[#   3]+0.198*[#   6]+0.163*[#   5]+0.115*[#   2]+0.082*[#   4]
          +0.071*[#   7]+0.048*[#   1]+0.047*[#   9]+0.024*[#   8]
    |psi|^2 = 0.993
==== e(   7) =    19.04762 eV ==== 

    |psi|^2 = 0.000
==== e(   8) =    19.84628 eV ==== 
     psi = 0.664*[#   2]+0.065*[#   3]+0.044*[#   5]+0.030*[#   1]+0.022*[#   4]
          +0.003*[#   6]
    |psi|^2 = 0.828
==== e(   9) =    20.69658 eV ==== 
     psi = 0.456*[#   5]+0.344*[#   3]+0.037*[#   4]+0.014*[#   9]+0.010*[#   7]
          +0.001*[#   8]
    |psi|^2 = 0.862

 k =   0.1491488195 -0.2109282834  0.2583333333
==== e(   1) =   -40.42328 eV ==== 
     psi = 0.892*[#   1]+0.052*[#   3]+0.034*[#   5]+0.017*[#   4]+0.004*[#   2]
          
    |psi|^2 = 1.000
==== e(   2) =   -19.03708 eV ==== 
     psi = 0.775*[#   6]+0.076*[#   3]+0.062*[#   2]+0.051*[#   5]+0.025*[#   4]
          +0.011*[#   1]
    |psi|^2 = 1.000
==== e(   3) =    -0.91309 eV ==== 
     psi = 0.425*[#   7]+0.283*[#   9]+0.142*[#   8]+0.042*[#   3]+0.029*[#   6]
          +0.028*[#   5]+0.021*[#   2]+0.014*[#   4]+0.013*[#   1]
    |psi|^2 = 0.998
==== e(   4) =     0.02057 eV ==== 
     psi = 0.642*[#   9]+0.288*[#   7]+0.042*[#   8]+0.018*[#   5]+0.008*[#   3]
          +0.001*[#   4]
    |psi|^2 = 0.998
==== e(   5) =     0.02057 eV ==== 
     psi = 0.768*[#   8]+0.198*[#   7]+0.021*[#   4]+0.006*[#   9]+0.005*[#   3]
          
    |psi|^2 = 0.998
==== e(   6) =    11.68914 eV ==== 
     psi = 0.251*[#   3]+0.190*[#   6]+0.167*[#   5]+0.108*[#   2]+0.084*[#   4]
          +0.074*[#   7]+0.049*[#   9]+0.046*[#   1]+0.025*[#   8]
    |psi|^2 = 0.993
==== e(   7) =    18.90316 eV ==== 

    |psi|^2 = 0.000
==== e(   8) =    19.72223 eV ==== 
     psi = 0.685*[#   2]+0.062*[#   3]+0.041*[#   5]+0.031*[#   1]+0.021*[#   4]
          +0.003*[#   6]
    |psi|^2 = 0.843
==== e(   9) =    20.65248 eV ==== 
     psi = 0.503*[#   4]+0.220*[#   5]+0.120*[#   3]+0.016*[#   8]+0.007*[#   9]
          +0.004*[#   7]
    |psi|^2 = 0.869

 k =   0.1539600718 -0.2177324216  0.2666666667
==== e(   1) =   -40.42164 eV ==== 
     psi = 0.896*[#   1]+0.049*[#   3]+0.033*[#   5]+0.016*[#   4]+0.005*[#   2]
          
    |psi|^2 = 1.000
==== e(   2) =   -19.02031 eV ==== 
     psi = 0.782*[#   6]+0.074*[#   3]+0.058*[#   2]+0.050*[#   5]+0.025*[#   4]
          +0.010*[#   1]
    |psi|^2 = 1.000
==== e(   3) =    -0.98728 eV ==== 
     psi = 0.423*[#   7]+0.282*[#   9]+0.141*[#   8]+0.046*[#   3]+0.030*[#   5]
          +0.029*[#   6]+0.019*[#   2]+0.015*[#   4]+0.013*[#   1]
    |psi|^2 = 0.998
==== e(   4) =    -0.00382 eV ==== 
     psi = 0.641*[#   9]+0.287*[#   7]+0.042*[#   8]+0.019*[#   5]+0.008*[#   3]
          +0.001*[#   4]
    |psi|^2 = 0.999
==== e(   5) =    -0.00382 eV ==== 
     psi = 0.767*[#   8]+0.198*[#   7]+0.022*[#   4]+0.006*[#   3]+0.006*[#   9]
          
    |psi|^2 = 0.999
==== e(   6) =    11.82705 eV ==== 
     psi = 0.256*[#   3]+0.183*[#   6]+0.171*[#   5]+0.101*[#   2]+0.085*[#   4]
          +0.076*[#   7]+0.051*[#   9]+0.044*[#   1]+0.025*[#   8]
    |psi|^2 = 0.993
==== e(   7) =    18.76348 eV ==== 

    |psi|^2 = 0.000
==== e(   8) =    19.60195 eV ==== 
     psi = 0.704*[#   2]+0.059*[#   3]+0.039*[#   5]+0.031*[#   1]+0.020*[#   4]
          +0.003*[#   6]
    |psi|^2 = 0.856
==== e(   9) =    20.61177 eV ==== 
     psi = 0.414*[#   3]+0.234*[#   5]+0.200*[#   4]+0.014*[#   7]+0.008*[#   9]
          +0.007*[#   8]
    |psi|^2 = 0.875

 k =   0.1587713240 -0.2245365598  0.2750000000
==== e(   1) =   -40.42005 eV ==== 
     psi = 0.899*[#   1]+0.047*[#   3]+0.031*[#   5]+0.016*[#   4]+0.006*[#   2]
          
    |psi|^2 = 1.000
==== e(   2) =   -19.00343 eV ==== 
     psi = 0.790*[#   6]+0.072*[#   3]+0.055*[#   2]+0.048*[#   5]+0.024*[#   4]
          +0.009*[#   1]
    |psi|^2 = 1.000
==== e(   3) =    -1.06137 eV ==== 
     psi = 0.420*[#   7]+0.280*[#   9]+0.140*[#   8]+0.049*[#   3]+0.033*[#   5]
          +0.029*[#   6]+0.017*[#   2]+0.016*[#   4]+0.013*[#   1]
    |psi|^2 = 0.998
==== e(   4) =    -0.02803 eV ==== 
     psi = 0.641*[#   9]+0.287*[#   7]+0.042*[#   8]+0.020*[#   5]+0.009*[#   3]
          +0.001*[#   4]
    |psi|^2 = 0.999
==== e(   5) =    -0.02803 eV ==== 
     psi = 0.766*[#   8]+0.198*[#   7]+0.023*[#   4]+0.006*[#   3]+0.005*[#   9]
          
    |psi|^2 = 0.999
==== e(   6) =    11.96654 eV ==== 
     psi = 0.262*[#   3]+0.175*[#   6]+0.175*[#   5]+0.096*[#   2]+0.087*[#   4]
          +0.078*[#   7]+0.052*[#   9]+0.042*[#   1]+0.026*[#   8]
    |psi|^2 = 0.993
==== e(   7) =    18.62858 eV ==== 

    |psi|^2 = 0.000
==== e(   8) =    19.48528 eV ==== 
     psi = 0.721*[#   2]+0.056*[#   3]+0.038*[#   5]+0.031*[#   1]+0.019*[#   4]
          +0.003*[#   6]
    |psi|^2 = 0.868
==== e(   9) =    20.57429 eV ==== 
     psi = 0.574*[#   4]+0.248*[#   3]+0.030*[#   5]+0.020*[#   8]+0.008*[#   7]
          +0.001*[#   9]
    |psi|^2 = 0.882

 k =   0.1635825763 -0.2313406979  0.2833333333
==== e(   1) =   -40.41850 eV ==== 
     psi = 0.903*[#   1]+0.045*[#   3]+0.030*[#   5]+0.015*[#   4]+0.007*[#   2]
          
    |psi|^2 = 1.000
==== e(   2) =   -18.98648 eV ==== 
     psi = 0.799*[#   6]+0.070*[#   3]+0.052*[#   2]+0.047*[#   5]+0.023*[#   4]
          +0.008*[#   1]
    |psi|^2 = 1.000
==== e(   3) =    -1.13515 eV ==== 
     psi = 0.418*[#   7]+0.279*[#   9]+0.139*[#   8]+0.052*[#   3]+0.035*[#   5]
          +0.028*[#   6]+0.017*[#   4]+0.016*[#   2]+0.013*[#   1]
    |psi|^2 = 0.998
==== e(   4) =    -0.05200 eV ==== 
     psi = 0.640*[#   9]+0.286*[#   7]+0.042*[#   8]+0.020*[#   5]+0.009*[#   3]
          +0.001*[#   4]
    |psi|^2 = 0.999
==== e(   5) =    -0.05200 eV ==== 
     psi = 0.765*[#   8]+0.198*[#   7]+0.024*[#   4]+0.006*[#   3]+0.005*[#   9]
          
    |psi|^2 = 0.999
==== e(   6) =    12.10739 eV ==== 
     psi = 0.267*[#   3]+0.178*[#   5]+0.167*[#   6]+0.091*[#   2]+0.089*[#   4]
          +0.081*[#   7]+0.054*[#   9]+0.039*[#   1]+0.027*[#   8]
    |psi|^2 = 0.993
==== e(   7) =    18.49850 eV ==== 

    |psi|^2 = 0.000
==== e(   8) =    19.37208 eV ==== 
     psi = 0.736*[#   2]+0.054*[#   3]+0.036*[#   5]+0.031*[#   1]+0.018*[#   4]
          +0.004*[#   6]
    |psi|^2 = 0.879
==== e(   9) =    20.53989 eV ==== 
     psi = 0.526*[#   5]+0.182*[#   3]+0.150*[#   4]+0.019*[#   9]+0.006*[#   7]
          +0.005*[#   8]
    |psi|^2 = 0.889

 k =   0.1683938285 -0.2381448361  0.2916666667
==== e(   1) =   -40.41695 eV ==== 
     psi = 0.907*[#   1]+0.042*[#   3]+0.028*[#   5]+0.014*[#   4]+0.008*[#   2]
          
    |psi|^2 = 1.000
==== e(   2) =   -18.96953 eV ==== 
     psi = 0.807*[#   6]+0.068*[#   3]+0.049*[#   2]+0.045*[#   5]+0.023*[#   4]
          +0.008*[#   1]
    |psi|^2 = 1.000
==== e(   3) =    -1.20838 eV ==== 
     psi = 0.416*[#   7]+0.278*[#   9]+0.139*[#   8]+0.055*[#   3]+0.037*[#   5]
          +0.028*[#   6]+0.018*[#   4]+0.014*[#   2]+0.013*[#   1]
    |psi|^2 = 0.998
==== e(   4) =    -0.07565 eV ==== 
     psi = 0.639*[#   9]+0.286*[#   7]+0.042*[#   8]+0.021*[#   5]+0.010*[#   3]
          +0.001*[#   4]
    |psi|^2 = 0.999
==== e(   5) =    -0.07565 eV ==== 
     psi = 0.763*[#   8]+0.198*[#   7]+0.025*[#   4]+0.007*[#   3]+0.005*[#   9]
          
    |psi|^2 = 0.999
==== e(   6) =    12.24936 eV ==== 
     psi = 0.273*[#   3]+0.182*[#   5]+0.159*[#   6]+0.091*[#   4]+0.087*[#   2]
          +0.082*[#   7]+0.055*[#   9]+0.037*[#   1]+0.027*[#   8]
    |psi|^2 = 0.993
==== e(   7) =    18.37324 eV ==== 

    |psi|^2 = 0.000
==== e(   8) =    19.26224 eV ==== 
     psi = 0.751*[#   2]+0.051*[#   3]+0.034*[#   5]+0.032*[#   1]+0.017*[#   4]
          +0.004*[#   6]
    |psi|^2 = 0.888
==== e(   9) =    20.50843 eV ==== 
     psi = 0.401*[#   3]+0.314*[#   4]+0.148*[#   5]+0.015*[#   7]+0.012*[#   8]
          +0.005*[#   9]
    |psi|^2 = 0.895

 k =   0.1732050808 -0.2449489743  0.3000000000
==== e(   1) =   -40.41543 eV ==== 
     psi = 0.911*[#   1]+0.040*[#   3]+0.027*[#   5]+0.013*[#   4]+0.009*[#   2]
          
    |psi|^2 = 1.000
==== e(   2) =   -18.95261 eV ==== 
     psi = 0.816*[#   6]+0.065*[#   3]+0.046*[#   2]+0.043*[#   5]+0.022*[#   4]
          +0.007*[#   1]
    |psi|^2 = 1.000
==== e(   3) =    -1.28087 eV ==== 
     psi = 0.415*[#   7]+0.276*[#   9]+0.138*[#   8]+0.059*[#   3]+0.039*[#   5]
          +0.027*[#   6]+0.020*[#   4]+0.013*[#   2]+0.012*[#   1]
    |psi|^2 = 0.998
==== e(   4) =    -0.09894 eV ==== 
     psi = 0.638*[#   9]+0.285*[#   7]+0.042*[#   8]+0.022*[#   5]+0.010*[#   3]
          +0.001*[#   4]
    |psi|^2 = 0.999
==== e(   5) =    -0.09894 eV ==== 
     psi = 0.762*[#   8]+0.197*[#   7]+0.026*[#   4]+0.007*[#   3]+0.005*[#   9]
          
    |psi|^2 = 0.999
==== e(   6) =    12.39216 eV ==== 
     psi = 0.279*[#   3]+0.186*[#   5]+0.150*[#   6]+0.093*[#   4]+0.084*[#   7]
          +0.083*[#   2]+0.056*[#   9]+0.034*[#   1]+0.028*[#   8]
    |psi|^2 = 0.993
==== e(   7) =    18.25282 eV ==== 

    |psi|^2 = 0.000
==== e(   8) =    19.15558 eV ==== 
     psi = 0.763*[#   2]+0.049*[#   3]+0.032*[#   5]+0.032*[#   1]+0.016*[#   4]
          +0.004*[#   6]
    |psi|^2 = 0.897
==== e(   9) =    20.47976 eV ==== 
     psi = 0.621*[#   4]+0.245*[#   3]+0.024*[#   8]+0.009*[#   7]+0.002*[#   5]
          
    |psi|^2 = 0.902

 k =   0.1780163330 -0.2517531124  0.3083333333
==== e(   1) =   -40.41392 eV ==== 
     psi = 0.915*[#   1]+0.037*[#   3]+0.025*[#   5]+0.012*[#   4]+0.010*[#   2]
          
    |psi|^2 = 1.000
==== e(   2) =   -18.93578 eV ==== 
     psi = 0.825*[#   6]+0.062*[#   3]+0.044*[#   2]+0.041*[#   5]+0.021*[#   4]
          +0.006*[#   1]
    |psi|^2 = 1.000
==== e(   3) =    -1.35240 eV ==== 
     psi = 0.413*[#   7]+0.275*[#   9]+0.138*[#   8]+0.062*[#   3]+0.041*[#   5]
          +0.026*[#   6]+0.021*[#   4]+0.012*[#   1]+0.011*[#   2]
    |psi|^2 = 0.998
==== e(   4) =    -0.12178 eV ==== 
     psi = 0.637*[#   9]+0.285*[#   7]+0.042*[#   8]+0.023*[#   5]+0.010*[#   3]
          +0.002*[#   4]
    |psi|^2 = 0.999
==== e(   5) =    -0.12178 eV ==== 
     psi = 0.761*[#   8]+0.197*[#   7]+0.027*[#   4]+0.007*[#   3]+0.005*[#   9]
          
    |psi|^2 = 0.999
==== e(   6) =    12.53554 eV ==== 
     psi = 0.284*[#   3]+0.189*[#   5]+0.142*[#   6]+0.095*[#   4]+0.086*[#   7]
          +0.080*[#   2]+0.057*[#   9]+0.031*[#   1]+0.029*[#   8]
    |psi|^2 = 0.993
==== e(   7) =    18.13724 eV ==== 

    |psi|^2 = 0.000
==== e(   8) =    19.05192 eV ==== 
     psi = 0.775*[#   2]+0.046*[#   3]+0.032*[#   1]+0.031*[#   5]+0.015*[#   4]
          +0.004*[#   6]
    |psi|^2 = 0.905
==== e(   9) =    20.45372 eV ==== 
     psi = 0.430*[#   3]+0.225*[#   4]+0.219*[#   5]+0.017*[#   7]+0.009*[#   8]
          +0.009*[#   9]
    |psi|^2 = 0.909

 k =   0.1828275853 -0.2585572507  0.3166666667
==== e(   1) =   -40.41246 eV ==== 
     psi = 0.919*[#   1]+0.035*[#   3]+0.023*[#   5]+0.012*[#   4]+0.011*[#   2]
          
    |psi|^2 = 1.000
==== e(   2) =   -18.91910 eV ==== 
     psi = 0.835*[#   6]+0.059*[#   3]+0.041*[#   2]+0.039*[#   5]+0.020*[#   4]
          +0.005*[#   1]
    |psi|^2 = 1.000
==== e(   3) =    -1.42276 eV ==== 
     psi = 0.411*[#   7]+0.274*[#   9]+0.137*[#   8]+0.064*[#   3]+0.043*[#   5]
          +0.025*[#   6]+0.021*[#   4]+0.012*[#   1]+0.010*[#   2]
    |psi|^2 = 0.998
==== e(   4) =    -0.14413 eV ==== 
     psi = 0.637*[#   9]+0.284*[#   7]+0.042*[#   8]+0.024*[#   5]+0.011*[#   3]
          +0.002*[#   4]
    |psi|^2 = 0.999
==== e(   5) =    -0.14413 eV ==== 
     psi = 0.760*[#   8]+0.197*[#   7]+0.028*[#   4]+0.007*[#   3]+0.005*[#   9]
          
    |psi|^2 = 0.999
==== e(   6) =    12.67919 eV ==== 
     psi = 0.290*[#   3]+0.193*[#   5]+0.133*[#   6]+0.097*[#   4]+0.087*[#   7]
          +0.077*[#   2]+0.058*[#   9]+0.029*[#   8]+0.029*[#   1]
    |psi|^2 = 0.992
==== e(   7) =    18.02653 eV ==== 

    |psi|^2 = 0.000
==== e(   8) =    18.95107 eV ==== 
     psi = 0.785*[#   2]+0.044*[#   3]+0.032*[#   1]+0.030*[#   5]+0.015*[#   4]
          +0.005*[#   6]
    |psi|^2 = 0.911
==== e(   9) =    20.43017 eV ==== 
     psi = 0.562*[#   5]+0.176*[#   4]+0.141*[#   3]+0.023*[#   9]+0.007*[#   8]
          +0.006*[#   7]
    |psi|^2 = 0.915

 k =   0.1876388375 -0.2653613888  0.3250000000
==== e(   1) =   -40.41102 eV ==== 
     psi = 0.923*[#   1]+0.032*[#   3]+0.021*[#   5]+0.012*[#   2]+0.011*[#   4]
          
    |psi|^2 = 1.000
==== e(   2) =   -18.90262 eV ==== 
     psi = 0.845*[#   6]+0.056*[#   3]+0.039*[#   2]+0.037*[#   5]+0.019*[#   4]
          +0.005*[#   1]
    |psi|^2 = 1.000
==== e(   3) =    -1.49174 eV ==== 
     psi = 0.410*[#   7]+0.273*[#   9]+0.137*[#   8]+0.067*[#   3]+0.045*[#   5]
          +0.024*[#   6]+0.022*[#   4]+0.011*[#   1]+0.009*[#   2]
    |psi|^2 = 0.998
==== e(   4) =    -0.16592 eV ==== 
     psi = 0.636*[#   9]+0.284*[#   7]+0.042*[#   8]+0.025*[#   5]+0.011*[#   3]
          +0.002*[#   4]
    |psi|^2 = 0.999
==== e(   5) =    -0.16592 eV ==== 
     psi = 0.759*[#   8]+0.197*[#   7]+0.029*[#   4]+0.008*[#   3]+0.005*[#   9]
          
    |psi|^2 = 0.999
==== e(   6) =    12.82282 eV ==== 
     psi = 0.296*[#   3]+0.197*[#   5]+0.124*[#   6]+0.099*[#   4]+0.088*[#   7]
          +0.074*[#   2]+0.059*[#   9]+0.029*[#   8]+0.026*[#   1]
    |psi|^2 = 0.992
==== e(   7) =    17.92069 eV ==== 

    |psi|^2 = 0.000
==== e(   8) =    18.85289 eV ==== 
     psi = 0.795*[#   2]+0.043*[#   3]+0.032*[#   1]+0.028*[#   5]+0.014*[#   4]
          +0.005*[#   6]
    |psi|^2 = 0.918
==== e(   9) =    20.40895 eV ==== 
     psi = 0.511*[#   4]+0.271*[#   5]+0.103*[#   3]+0.021*[#   8]+0.011*[#   9]
          +0.004*[#   7]
    |psi|^2 = 0.921

 k =   0.1924500897 -0.2721655270  0.3333333333
==== e(   1) =   -40.40964 eV ==== 
     psi = 0.927*[#   1]+0.030*[#   3]+0.020*[#   5]+0.013*[#   2]+0.010*[#   4]
          
    |psi|^2 = 1.000
==== e(   2) =   -18.88640 eV ==== 
     psi = 0.855*[#   6]+0.052*[#   3]+0.037*[#   2]+0.035*[#   5]+0.017*[#   4]
          +0.004*[#   1]
    |psi|^2 = 1.000
==== e(   3) =    -1.55915 eV ==== 
     psi = 0.409*[#   7]+0.273*[#   9]+0.136*[#   8]+0.070*[#   3]+0.047*[#   5]
          +0.023*[#   4]+0.022*[#   6]+0.011*[#   1]+0.008*[#   2]
    |psi|^2 = 0.998
==== e(   4) =    -0.18710 eV ==== 
     psi = 0.635*[#   9]+0.283*[#   7]+0.042*[#   8]+0.025*[#   5]+0.011*[#   3]
          +0.002*[#   4]
    |psi|^2 = 0.999
==== e(   5) =    -0.18710 eV ==== 
     psi = 0.759*[#   8]+0.197*[#   7]+0.030*[#   4]+0.008*[#   3]+0.005*[#   9]
          
    |psi|^2 = 0.999
==== e(   6) =    12.96610 eV ==== 
     psi = 0.301*[#   3]+0.201*[#   5]+0.115*[#   6]+0.100*[#   4]+0.089*[#   7]
          +0.072*[#   2]+0.060*[#   9]+0.030*[#   8]+0.023*[#   1]
    |psi|^2 = 0.992
==== e(   7) =    17.81972 eV ==== 

    |psi|^2 = 0.000
==== e(   8) =    18.75718 eV ==== 
     psi = 0.803*[#   2]+0.041*[#   3]+0.032*[#   1]+0.027*[#   5]+0.014*[#   4]
          +0.005*[#   6]
    |psi|^2 = 0.923
==== e(   9) =    20.38992 eV ==== 
     psi = 0.696*[#   4]+0.132*[#   3]+0.061*[#   5]+0.030*[#   8]+0.006*[#   7]
          +0.003*[#   9]
    |psi|^2 = 0.927

 k =   0.1972613420 -0.2789696652  0.3416666667
==== e(   1) =   -40.40831 eV ==== 
     psi = 0.931*[#   1]+0.027*[#   3]+0.018*[#   5]+0.015*[#   2]+0.009*[#   4]
          
    |psi|^2 = 1.000
==== e(   2) =   -18.87049 eV ==== 
     psi = 0.865*[#   6]+0.049*[#   3]+0.034*[#   2]+0.032*[#   5]+0.016*[#   4]
          +0.004*[#   1]
    |psi|^2 = 1.000
==== e(   3) =    -1.62478 eV ==== 
     psi = 0.408*[#   7]+0.272*[#   9]+0.136*[#   8]+0.072*[#   3]+0.048*[#   5]
          +0.024*[#   4]+0.021*[#   6]+0.010*[#   1]+0.007*[#   2]
    |psi|^2 = 0.998
==== e(   4) =    -0.20762 eV ==== 
     psi = 0.635*[#   9]+0.283*[#   7]+0.042*[#   8]+0.026*[#   5]+0.012*[#   3]
          +0.002*[#   4]
    |psi|^2 = 0.999
==== e(   5) =    -0.20762 eV ==== 
     psi = 0.758*[#   8]+0.197*[#   7]+0.031*[#   4]+0.008*[#   3]+0.005*[#   9]
          
    |psi|^2 = 0.999
==== e(   6) =    13.10872 eV ==== 
     psi = 0.307*[#   3]+0.205*[#   5]+0.106*[#   6]+0.102*[#   4]+0.090*[#   7]
          +0.070*[#   2]+0.060*[#   9]+0.030*[#   8]+0.021*[#   1]
    |psi|^2 = 0.992
==== e(   7) =    17.72365 eV ==== 

    |psi|^2 = 0.000
==== e(   8) =    18.66379 eV ==== 
     psi = 0.810*[#   2]+0.039*[#   3]+0.032*[#   1]+0.026*[#   5]+0.013*[#   4]
          +0.005*[#   6]+0.001*[#   7]
    |psi|^2 = 0.928
==== e(   9) =    20.37292 eV ==== 
     psi = 0.596*[#   4]+0.237*[#   5]+0.061*[#   3]+0.026*[#   8]+0.010*[#   9]
          +0.003*[#   7]
    |psi|^2 = 0.933

 k =   0.2020725942 -0.2857738033  0.3500000000
==== e(   1) =   -40.40702 eV ==== 
     psi = 0.935*[#   1]+0.024*[#   3]+0.016*[#   5]+0.016*[#   2]+0.008*[#   4]
          
    |psi|^2 = 1.000
==== e(   2) =   -18.85496 eV ==== 
     psi = 0.875*[#   6]+0.045*[#   3]+0.032*[#   2]+0.030*[#   5]+0.015*[#   4]
          +0.003*[#   1]
    |psi|^2 = 1.000
==== e(   3) =    -1.68841 eV ==== 
     psi = 0.407*[#   7]+0.272*[#   9]+0.136*[#   8]+0.075*[#   3]+0.050*[#   5]
          +0.025*[#   4]+0.019*[#   6]+0.009*[#   1]+0.006*[#   2]
    |psi|^2 = 0.998
==== e(   4) =    -0.22742 eV ==== 
     psi = 0.634*[#   9]+0.283*[#   7]+0.042*[#   8]+0.027*[#   5]+0.012*[#   3]
          +0.002*[#   4]
    |psi|^2 = 0.999
==== e(   5) =    -0.22742 eV ==== 
     psi = 0.757*[#   8]+0.197*[#   7]+0.032*[#   4]+0.008*[#   3]+0.005*[#   9]
          
    |psi|^2 = 0.999
==== e(   6) =    13.25031 eV ==== 
     psi = 0.313*[#   3]+0.209*[#   5]+0.104*[#   4]+0.098*[#   6]+0.091*[#   7]
          +0.068*[#   2]+0.060*[#   9]+0.030*[#   8]+0.018*[#   1]
    |psi|^2 = 0.991
==== e(   7) =    17.63246 eV ==== 

    |psi|^2 = 0.000
==== e(   8) =    18.57259 eV ==== 
     psi = 0.817*[#   2]+0.038*[#   3]+0.032*[#   1]+0.025*[#   5]+0.013*[#   4]
          +0.005*[#   6]+0.001*[#   7]
    |psi|^2 = 0.932
==== e(   9) =    20.35782 eV ==== 
     psi = 0.387*[#   3]+0.262*[#   4]+0.249*[#   5]+0.017*[#   7]+0.012*[#   8]
          +0.011*[#   9]
    |psi|^2 = 0.938

 k =   0.2068838464 -0.2925779415  0.3583333333
==== e(   1) =   -40.40579 eV ==== 
     psi = 0.939*[#   1]+0.022*[#   3]+0.017*[#   2]+0.014*[#   5]+0.007*[#   4]
          
    |psi|^2 = 1.000
==== e(   2) =   -18.83985 eV ==== 
     psi = 0.885*[#   6]+0.041*[#   3]+0.031*[#   2]+0.027*[#   5]+0.014*[#   4]
          +0.003*[#   1]
    |psi|^2 = 1.000
==== e(   3) =    -1.74986 eV ==== 
     psi = 0.407*[#   7]+0.271*[#   9]+0.136*[#   8]+0.077*[#   3]+0.051*[#   5]
          +0.026*[#   4]+0.018*[#   6]+0.008*[#   1]+0.005*[#   2]
    |psi|^2 = 0.998
==== e(   4) =    -0.24645 eV ==== 
     psi = 0.634*[#   9]+0.282*[#   7]+0.042*[#   8]+0.027*[#   5]+0.012*[#   3]
          +0.002*[#   4]
    |psi|^2 = 0.999
==== e(   5) =    -0.24645 eV ==== 
     psi = 0.756*[#   8]+0.197*[#   7]+0.032*[#   4]+0.008*[#   3]+0.005*[#   9]
          
    |psi|^2 = 0.999
==== e(   6) =    13.39050 eV ==== 
     psi = 0.319*[#   3]+0.213*[#   5]+0.106*[#   4]+0.091*[#   7]+0.089*[#   6]
          +0.066*[#   2]+0.061*[#   9]+0.030*[#   8]+0.015*[#   1]
    |psi|^2 = 0.991
==== e(   7) =    17.54618 eV ==== 

    |psi|^2 = 0.000
==== e(   8) =    18.48345 eV ==== 
     psi = 0.823*[#   2]+0.036*[#   3]+0.032*[#   1]+0.024*[#   5]+0.012*[#   4]
          +0.006*[#   6]+0.001*[#   7]
    |psi|^2 = 0.936
==== e(   9) =    20.34447 eV ==== 
     psi = 0.597*[#   5]+0.195*[#   3]+0.110*[#   4]+0.027*[#   9]+0.009*[#   7]
          +0.005*[#   8]
    |psi|^2 = 0.943

 k =   0.2116950987 -0.2993820797  0.3666666667
==== e(   1) =   -40.40461 eV ==== 
     psi = 0.943*[#   1]+0.019*[#   3]+0.018*[#   2]+0.013*[#   5]+0.006*[#   4]
          
    |psi|^2 = 1.000
==== e(   2) =   -18.82523 eV ==== 
     psi = 0.895*[#   6]+0.037*[#   3]+0.029*[#   2]+0.025*[#   5]+0.012*[#   4]
          +0.002*[#   1]
    |psi|^2 = 1.000
==== e(   3) =    -1.80894 eV ==== 
     psi = 0.407*[#   7]+0.271*[#   9]+0.136*[#   8]+0.078*[#   3]+0.052*[#   5]
          +0.026*[#   4]+0.016*[#   6]+0.008*[#   1]+0.004*[#   2]
    |psi|^2 = 0.998
==== e(   4) =    -0.26465 eV ==== 
     psi = 0.633*[#   9]+0.282*[#   7]+0.042*[#   8]+0.028*[#   5]+0.012*[#   3]
          +0.002*[#   4]
    |psi|^2 = 0.999
==== e(   5) =    -0.26465 eV ==== 
     psi = 0.756*[#   8]+0.197*[#   7]+0.033*[#   4]+0.009*[#   3]+0.005*[#   9]
          
    |psi|^2 = 0.999
==== e(   6) =    13.52887 eV ==== 
     psi = 0.325*[#   3]+0.217*[#   5]+0.108*[#   4]+0.091*[#   7]+0.080*[#   6]
          +0.064*[#   2]+0.061*[#   9]+0.030*[#   8]+0.013*[#   1]
    |psi|^2 = 0.990
==== e(   7) =    17.46480 eV ==== 

    |psi|^2 = 0.000
==== e(   8) =    18.39633 eV ==== 
     psi = 0.829*[#   2]+0.035*[#   3]+0.032*[#   1]+0.023*[#   5]+0.012*[#   4]
          +0.006*[#   6]+0.002*[#   7]+0.001*[#   9]
    |psi|^2 = 0.940
==== e(   9) =    20.33272 eV ==== 
     psi = 0.413*[#   3]+0.350*[#   4]+0.143*[#   5]+0.019*[#   7]+0.016*[#   8]
          +0.007*[#   9]
    |psi|^2 = 0.948

 k =   0.2165063509 -0.3061862179  0.3750000000
==== e(   1) =   -40.40348 eV ==== 
     psi = 0.946*[#   1]+0.019*[#   2]+0.017*[#   3]+0.011*[#   5]+0.006*[#   4]
          
    |psi|^2 = 1.000
==== e(   2) =   -18.81116 eV ==== 
     psi = 0.904*[#   6]+0.033*[#   3]+0.027*[#   2]+0.022*[#   5]+0.011*[#   4]
          +0.002*[#   1]
    |psi|^2 = 1.000
==== e(   3) =    -1.86545 eV ==== 
     psi = 0.407*[#   7]+0.271*[#   9]+0.136*[#   8]+0.080*[#   3]+0.053*[#   5]
          +0.027*[#   4]+0.015*[#   6]+0.007*[#   1]+0.004*[#   2]
    |psi|^2 = 0.998
==== e(   4) =    -0.28200 eV ==== 
     psi = 0.633*[#   9]+0.282*[#   7]+0.042*[#   8]+0.028*[#   5]+0.013*[#   3]
          +0.002*[#   4]
    |psi|^2 = 0.999
==== e(   5) =    -0.28200 eV ==== 
     psi = 0.755*[#   8]+0.197*[#   7]+0.033*[#   4]+0.009*[#   3]+0.005*[#   9]
          
    |psi|^2 = 0.999
==== e(   6) =    13.66500 eV ==== 
     psi = 0.331*[#   3]+0.221*[#   5]+0.110*[#   4]+0.091*[#   7]+0.072*[#   6]
          +0.062*[#   2]+0.061*[#   9]+0.030*[#   8]+0.011*[#   1]
    |psi|^2 = 0.990
==== e(   7) =    17.38834 eV ==== 

    |psi|^2 = 0.000
==== e(   8) =    18.31116 eV ==== 
     psi = 0.834*[#   2]+0.033*[#   3]+0.032*[#   1]+0.022*[#   5]+0.011*[#   4]
          +0.006*[#   6]+0.002*[#   7]+0.001*[#   9]
    |psi|^2 = 0.943
==== e(   9) =    20.32246 eV ==== 
     psi = 0.386*[#   5]+0.362*[#   3]+0.161*[#   4]+0.018*[#   9]+0.017*[#   7]
          +0.007*[#   8]
    |psi|^2 = 0.952

 k =   0.2213176032 -0.3129903560  0.3833333333
==== e(   1) =   -40.40241 eV ==== 
     psi = 0.949*[#   1]+0.021*[#   2]+0.015*[#   3]+0.010*[#   5]+0.005*[#   4]
          
    |psi|^2 = 1.000
==== e(   2) =   -18.79769 eV ==== 
     psi = 0.914*[#   6]+0.029*[#   3]+0.026*[#   2]+0.020*[#   5]+0.010*[#   4]
          +0.001*[#   1]
    |psi|^2 = 1.000
==== e(   3) =    -1.91923 eV ==== 
     psi = 0.407*[#   7]+0.271*[#   9]+0.136*[#   8]+0.081*[#   3]+0.054*[#   5]
          +0.027*[#   4]+0.013*[#   6]+0.006*[#   1]+0.003*[#   2]
    |psi|^2 = 0.998
==== e(   4) =    -0.29843 eV ==== 
     psi = 0.632*[#   9]+0.281*[#   7]+0.042*[#   8]+0.029*[#   5]+0.013*[#   3]
          +0.002*[#   4]
    |psi|^2 = 0.999
==== e(   5) =    -0.29843 eV ==== 
     psi = 0.754*[#   8]+0.197*[#   7]+0.034*[#   4]+0.009*[#   3]+0.005*[#   9]
          
    |psi|^2 = 0.999
==== e(   6) =    13.79840 eV ==== 
     psi = 0.338*[#   3]+0.225*[#   5]+0.113*[#   4]+0.090*[#   7]+0.063*[#   6]
          +0.060*[#   9]+0.060*[#   2]+0.030*[#   8]+0.009*[#   1]
    |psi|^2 = 0.989
==== e(   7) =    17.31678 eV ==== 

    |psi|^2 = 0.000
==== e(   8) =    18.22795 eV ==== 
     psi = 0.839*[#   2]+0.032*[#   1]+0.032*[#   3]+0.021*[#   5]+0.011*[#   4]
          +0.006*[#   6]+0.002*[#   7]+0.001*[#   9]
    |psi|^2 = 0.945
==== e(   9) =    20.31353 eV ==== 
     psi = 0.575*[#   5]+0.211*[#   4]+0.126*[#   3]+0.027*[#   9]+0.010*[#   8]
          +0.006*[#   7]
    |psi|^2 = 0.955

 k =   0.2261288555 -0.3197944942  0.3916666667
==== e(   1) =   -40.40140 eV ==== 
     psi = 0.952*[#   1]+0.022*[#   2]+0.013*[#   3]+0.008*[#   5]+0.004*[#   4]
          
    |psi|^2 = 1.000
==== e(   2) =   -18.78487 eV ==== 
     psi = 0.923*[#   6]+0.026*[#   3]+0.024*[#   2]+0.017*[#   5]+0.009*[#   4]
          +0.001*[#   1]
    |psi|^2 = 1.000
==== e(   3) =    -1.97009 eV ==== 
     psi = 0.407*[#   7]+0.272*[#   9]+0.136*[#   8]+0.082*[#   3]+0.055*[#   5]
          +0.027*[#   4]+0.011*[#   6]+0.005*[#   1]+0.003*[#   2]
    |psi|^2 = 0.998
==== e(   4) =    -0.31391 eV ==== 
     psi = 0.632*[#   9]+0.281*[#   7]+0.042*[#   8]+0.029*[#   5]+0.013*[#   3]
          +0.002*[#   4]
    |psi|^2 = 0.999
==== e(   5) =    -0.31391 eV ==== 
     psi = 0.754*[#   8]+0.197*[#   7]+0.034*[#   4]+0.009*[#   3]+0.005*[#   9]
          
    |psi|^2 = 0.999
==== e(   6) =    13.92857 eV ==== 
     psi = 0.344*[#   3]+0.229*[#   5]+0.115*[#   4]+0.090*[#   7]+0.060*[#   9]
          +0.058*[#   2]+0.056*[#   6]+0.030*[#   8]+0.007*[#   1]
    |psi|^2 = 0.988
==== e(   7) =    17.25015 eV ==== 

    |psi|^2 = 0.000
==== e(   8) =    18.14678 eV ==== 
     psi = 0.844*[#   2]+0.032*[#   1]+0.030*[#   3]+0.020*[#   5]+0.010*[#   4]
          +0.007*[#   6]+0.002*[#   7]+0.001*[#   9]
    |psi|^2 = 0.948
==== e(   9) =    20.30583 eV ==== 
     psi = 0.367*[#   4]+0.304*[#   3]+0.244*[#   5]+0.018*[#   8]+0.015*[#   7]
          +0.012*[#   9]
    |psi|^2 = 0.958

 k =   0.2309401077 -0.3265986324  0.4000000000
==== e(   1) =   -40.40044 eV ==== 
     psi = 0.955*[#   1]+0.023*[#   2]+0.011*[#   3]+0.007*[#   5]+0.004*[#   4]
          
    |psi|^2 = 1.000
==== e(   2) =   -18.77277 eV ==== 
     psi = 0.932*[#   6]+0.023*[#   2]+0.022*[#   3]+0.015*[#   5]+0.007*[#   4]
          
    |psi|^2 = 1.000
==== e(   3) =    -2.01788 eV ==== 
     psi = 0.408*[#   7]+0.272*[#   9]+0.136*[#   8]+0.083*[#   3]+0.055*[#   5]
          +0.028*[#   4]+0.010*[#   6]+0.005*[#   1]+0.002*[#   2]
    |psi|^2 = 0.999
==== e(   4) =    -0.32841 eV ==== 
     psi = 0.632*[#   9]+0.281*[#   7]+0.042*[#   8]+0.029*[#   5]+0.013*[#   3]
          +0.002*[#   4]
    |psi|^2 = 0.999
==== e(   5) =    -0.32841 eV ==== 
     psi = 0.753*[#   8]+0.197*[#   7]+0.035*[#   4]+0.009*[#   3]+0.005*[#   9]
          
    |psi|^2 = 0.999
==== e(   6) =    14.05490 eV ==== 
     psi = 0.350*[#   3]+0.233*[#   5]+0.117*[#   4]+0.089*[#   7]+0.059*[#   9]
          +0.055*[#   2]+0.048*[#   6]+0.030*[#   8]+0.006*[#   1]
    |psi|^2 = 0.987
==== e(   7) =    17.18844 eV ==== 

    |psi|^2 = 0.000
==== e(   8) =    18.06779 eV ==== 
     psi = 0.849*[#   2]+0.032*[#   1]+0.028*[#   3]+0.019*[#   5]+0.009*[#   4]
          +0.007*[#   6]+0.002*[#   7]+0.001*[#   9]
    |psi|^2 = 0.949
==== e(   9) =    20.29922 eV ==== 
     psi = 0.660*[#   4]+0.159*[#   5]+0.097*[#   3]+0.032*[#   8]+0.008*[#   9]
          +0.005*[#   7]
    |psi|^2 = 0.961

 k =   0.2357513599 -0.3334027705  0.4083333333
==== e(   1) =   -40.39960 eV ==== 
     psi = 0.958*[#   1]+0.024*[#   2]+0.009*[#   3]+0.006*[#   5]+0.003*[#   4]
          
    |psi|^2 = 1.000
==== e(   2) =   -18.76142 eV ==== 
     psi = 0.940*[#   6]+0.022*[#   2]+0.019*[#   3]+0.012*[#   5]+0.006*[#   4]
          
    |psi|^2 = 1.000
==== e(   3) =    -2.06246 eV ==== 
     psi = 0.409*[#   7]+0.272*[#   9]+0.136*[#   8]+0.084*[#   3]+0.056*[#   5]
          +0.028*[#   4]+0.008*[#   6]+0.004*[#   1]+0.002*[#   2]
    |psi|^2 = 0.999
==== e(   4) =    -0.34188 eV ==== 
     psi = 0.631*[#   9]+0.281*[#   7]+0.042*[#   8]+0.030*[#   5]+0.013*[#   3]
          +0.002*[#   4]
    |psi|^2 = 0.999
==== e(   5) =    -0.34188 eV ==== 
     psi = 0.753*[#   8]+0.196*[#   7]+0.035*[#   4]+0.009*[#   3]+0.005*[#   9]
          
    |psi|^2 = 0.999
==== e(   6) =    14.17675 eV ==== 
     psi = 0.356*[#   3]+0.238*[#   5]+0.119*[#   4]+0.088*[#   7]+0.059*[#   9]
          +0.052*[#   2]+0.041*[#   6]+0.029*[#   8]+0.004*[#   1]
    |psi|^2 = 0.986
==== e(   7) =    17.13165 eV ==== 

    |psi|^2 = 0.000
==== e(   8) =    17.99110 eV ==== 
     psi = 0.854*[#   2]+0.032*[#   1]+0.026*[#   3]+0.018*[#   5]+0.009*[#   4]
          +0.008*[#   6]+0.002*[#   7]+0.001*[#   9]
    |psi|^2 = 0.951
==== e(   9) =    20.29359 eV ==== 
     psi = 0.556*[#   4]+0.228*[#   5]+0.135*[#   3]+0.027*[#   8]+0.011*[#   9]
          +0.007*[#   7]
    |psi|^2 = 0.964

 k =   0.2405626122 -0.3402069088  0.4166666667
==== e(   1) =   -40.39880 eV ==== 
     psi = 0.960*[#   1]+0.025*[#   2]+0.007*[#   3]+0.005*[#   5]+0.002*[#   4]
          
    |psi|^2 = 1.000
==== e(   2) =   -18.75088 eV ==== 
     psi = 0.947*[#   6]+0.021*[#   2]+0.016*[#   3]+0.010*[#   5]+0.005*[#   4]
          
    |psi|^2 = 1.000
==== e(   3) =    -2.10366 eV ==== 
     psi = 0.410*[#   7]+0.273*[#   9]+0.137*[#   8]+0.084*[#   3]+0.056*[#   5]
          +0.028*[#   4]+0.007*[#   6]+0.003*[#   1]+0.001*[#   2]
    |psi|^2 = 0.999
==== e(   4) =    -0.35429 eV ==== 
     psi = 0.631*[#   9]+0.281*[#   7]+0.042*[#   8]+0.030*[#   5]+0.013*[#   3]
          +0.002*[#   4]
    |psi|^2 = 0.999
==== e(   5) =    -0.35429 eV ==== 
     psi = 0.753*[#   8]+0.196*[#   7]+0.036*[#   4]+0.009*[#   3]+0.005*[#   9]
          
    |psi|^2 = 0.999
==== e(   6) =    14.29341 eV ==== 
     psi = 0.363*[#   3]+0.242*[#   5]+0.121*[#   4]+0.087*[#   7]+0.058*[#   9]
          +0.048*[#   2]+0.034*[#   6]+0.029*[#   8]+0.003*[#   1]
    |psi|^2 = 0.985
==== e(   7) =    17.07980 eV ==== 

    |psi|^2 = 0.000
==== e(   8) =    17.91717 eV ==== 
     psi = 0.860*[#   2]+0.032*[#   1]+0.024*[#   3]+0.016*[#   5]+0.008*[#   6]
          +0.008*[#   4]+0.002*[#   7]+0.001*[#   9]
    |psi|^2 = 0.952
==== e(   9) =    20.28883 eV ==== 
     psi = 0.577*[#   5]+0.207*[#   4]+0.136*[#   3]+0.028*[#   9]+0.010*[#   8]
          +0.007*[#   7]
    |psi|^2 = 0.966

 k =   0.2453738644 -0.3470110469  0.4250000000
==== e(   1) =   -40.39805 eV ==== 
     psi = 0.962*[#   1]+0.026*[#   2]+0.006*[#   3]+0.004*[#   5]+0.002*[#   4]
          
    |psi|^2 = 1.000
==== e(   2) =   -18.74119 eV ==== 
     psi = 0.954*[#   6]+0.020*[#   2]+0.013*[#   3]+0.008*[#   5]+0.004*[#   4]
          
    |psi|^2 = 1.000
==== e(   3) =    -2.14136 eV ==== 
     psi = 0.411*[#   7]+0.274*[#   9]+0.137*[#   8]+0.084*[#   3]+0.056*[#   5]
          +0.028*[#   4]+0.006*[#   6]+0.003*[#   1]+0.001*[#   2]
    |psi|^2 = 0.999
==== e(   4) =    -0.36561 eV ==== 
     psi = 0.631*[#   9]+0.280*[#   7]+0.042*[#   8]+0.030*[#   5]+0.013*[#   3]
          +0.002*[#   4]
    |psi|^2 = 0.999
==== e(   5) =    -0.36561 eV ==== 
     psi = 0.752*[#   8]+0.196*[#   7]+0.036*[#   4]+0.009*[#   3]+0.005*[#   9]
          
    |psi|^2 = 0.999
==== e(   6) =    14.40408 eV ==== 
     psi = 0.369*[#   3]+0.246*[#   5]+0.123*[#   4]+0.086*[#   7]+0.058*[#   9]
          +0.043*[#   2]+0.029*[#   8]+0.028*[#   6]+0.002*[#   1]
    |psi|^2 = 0.984
==== e(   7) =    17.03287 eV ==== 

    |psi|^2 = 0.000
==== e(   8) =    17.84641 eV ==== 
     psi = 0.865*[#   2]+0.032*[#   1]+0.022*[#   3]+0.015*[#   5]+0.009*[#   6]
          +0.007*[#   4]+0.002*[#   7]+0.001*[#   9]
    |psi|^2 = 0.953
==== e(   9) =    20.28485 eV ==== 
     psi = 0.749*[#   4]+0.102*[#   5]+0.070*[#   3]+0.037*[#   8]+0.005*[#   9]
          +0.003*[#   7]
    |psi|^2 = 0.967

 k =   0.2501851166 -0.3538151850  0.4333333333
==== e(   1) =   -40.39739 eV ==== 
     psi = 0.963*[#   1]+0.027*[#   2]+0.004*[#   3]+0.003*[#   5]+0.001*[#   4]
          
    |psi|^2 = 1.000
==== e(   2) =   -18.73241 eV ==== 
     psi = 0.961*[#   6]+0.019*[#   2]+0.010*[#   3]+0.007*[#   5]+0.003*[#   4]
          
    |psi|^2 = 1.000
==== e(   3) =    -2.17543 eV ==== 
     psi = 0.412*[#   7]+0.274*[#   9]+0.137*[#   8]+0.084*[#   3]+0.056*[#   5]
          +0.028*[#   4]+0.004*[#   6]+0.002*[#   1]
    |psi|^2 = 0.999
==== e(   4) =    -0.37582 eV ==== 
     psi = 0.631*[#   9]+0.280*[#   7]+0.043*[#   8]+0.030*[#   5]+0.013*[#   3]
          +0.002*[#   4]
    |psi|^2 = 0.999
==== e(   5) =    -0.37582 eV ==== 
     psi = 0.752*[#   8]+0.196*[#   7]+0.036*[#   4]+0.009*[#   3]+0.005*[#   9]
          
    |psi|^2 = 0.999
==== e(   6) =    14.50782 eV ==== 
     psi = 0.375*[#   3]+0.250*[#   5]+0.125*[#   4]+0.085*[#   7]+0.057*[#   9]
          +0.038*[#   2]+0.028*[#   8]+0.022*[#   6]+0.002*[#   1]
    |psi|^2 = 0.983
==== e(   7) =    16.99088 eV ==== 

    |psi|^2 = 0.000
==== e(   8) =    17.77932 eV ==== 
     psi = 0.871*[#   2]+0.031*[#   1]+0.019*[#   3]+0.013*[#   5]+0.009*[#   6]
          +0.006*[#   4]+0.002*[#   7]+0.001*[#   9]
    |psi|^2 = 0.954
==== e(   9) =    20.28155 eV ==== 
     psi = 0.585*[#   5]+0.330*[#   3]+0.029*[#   9]+0.016*[#   7]+0.008*[#   4]
          
    |psi|^2 = 0.969

 k =   0.2549963689 -0.3606193233  0.4416666667
==== e(   1) =   -40.39679 eV ==== 
     psi = 0.964*[#   1]+0.028*[#   2]+0.003*[#   3]+0.002*[#   5]+0.001*[#   4]
          
    |psi|^2 = 1.000
==== e(   2) =   -18.72455 eV ==== 
     psi = 0.966*[#   6]+0.018*[#   2]+0.008*[#   3]+0.005*[#   5]+0.003*[#   4]
          
    |psi|^2 = 1.000
==== e(   3) =    -2.20575 eV ==== 
     psi = 0.413*[#   7]+0.275*[#   9]+0.138*[#   8]+0.084*[#   3]+0.056*[#   5]
          +0.028*[#   4]+0.003*[#   6]+0.002*[#   1]
    |psi|^2 = 0.999
==== e(   4) =    -0.38489 eV ==== 
     psi = 0.631*[#   9]+0.280*[#   7]+0.043*[#   8]+0.030*[#   5]+0.014*[#   3]
          +0.002*[#   4]
    |psi|^2 = 0.999
==== e(   5) =    -0.38489 eV ==== 
     psi = 0.752*[#   8]+0.196*[#   7]+0.036*[#   4]+0.009*[#   3]+0.005*[#   9]
          
    |psi|^2 = 0.999
==== e(   6) =    14.60364 eV ==== 
     psi = 0.381*[#   3]+0.254*[#   5]+0.127*[#   4]+0.085*[#   7]+0.056*[#   9]
          +0.032*[#   2]+0.028*[#   8]+0.017*[#   6]+0.001*[#   1]
    |psi|^2 = 0.983
==== e(   7) =    16.95383 eV ==== 

    |psi|^2 = 0.000
==== e(   8) =    17.71664 eV ==== 
     psi = 0.878*[#   2]+0.031*[#   1]+0.016*[#   3]+0.011*[#   5]+0.010*[#   6]
          +0.005*[#   4]+0.002*[#   7]+0.001*[#   9]
    |psi|^2 = 0.955
==== e(   9) =    20.27884 eV ==== 
     psi = 0.449*[#   3]+0.323*[#   5]+0.151*[#   4]+0.022*[#   7]+0.016*[#   9]
          +0.008*[#   8]
    |psi|^2 = 0.970

 k =   0.2598076211 -0.3674234614  0.4500000000
==== e(   1) =   -40.39630 eV ==== 
     psi = 0.965*[#   1]+0.029*[#   2]+0.002*[#   3]+0.002*[#   5]
    |psi|^2 = 1.000
==== e(   2) =   -18.71768 eV ==== 
     psi = 0.971*[#   6]+0.017*[#   2]+0.006*[#   3]+0.004*[#   5]+0.002*[#   4]
          
    |psi|^2 = 1.000
==== e(   3) =    -2.23225 eV ==== 
     psi = 0.414*[#   7]+0.276*[#   9]+0.138*[#   8]+0.084*[#   3]+0.056*[#   5]
          +0.028*[#   4]+0.002*[#   6]+0.001*[#   1]
    |psi|^2 = 0.999
==== e(   4) =    -0.39280 eV ==== 
     psi = 0.630*[#   9]+0.280*[#   7]+0.043*[#   8]+0.031*[#   5]+0.014*[#   3]
          +0.002*[#   4]
    |psi|^2 = 0.999
==== e(   5) =    -0.39280 eV ==== 
     psi = 0.752*[#   8]+0.196*[#   7]+0.036*[#   4]+0.010*[#   3]+0.005*[#   9]
          
    |psi|^2 = 0.999
==== e(   6) =    14.69038 eV ==== 
     psi = 0.387*[#   3]+0.258*[#   5]+0.129*[#   4]+0.084*[#   7]+0.056*[#   9]
          +0.028*[#   8]+0.026*[#   2]+0.013*[#   6]
    |psi|^2 = 0.982
==== e(   7) =    16.92171 eV ==== 

    |psi|^2 = 0.000
==== e(   8) =    17.65917 eV ==== 
     psi = 0.884*[#   2]+0.031*[#   1]+0.013*[#   3]+0.011*[#   6]+0.009*[#   5]
          +0.004*[#   4]+0.001*[#   7]
    |psi|^2 = 0.955
==== e(   9) =    20.27665 eV ==== 
     psi = 0.600*[#   5]+0.296*[#   3]+0.030*[#   9]+0.029*[#   4]+0.015*[#   7]
          +0.001*[#   8]
    |psi|^2 = 0.971

 k =   0.2646188734 -0.3742275996  0.4583333333
==== e(   1) =   -40.39586 eV ==== 
     psi = 0.966*[#   1]+0.030*[#   2]+0.002*[#   3]+0.001*[#   5]
    |psi|^2 = 1.000
==== e(   2) =   -18.71180 eV ==== 
     psi = 0.975*[#   6]+0.017*[#   2]+0.004*[#   3]+0.003*[#   5]+0.001*[#   4]
          
    |psi|^2 = 1.000
==== e(   3) =    -2.25481 eV ==== 
     psi = 0.415*[#   7]+0.277*[#   9]+0.138*[#   8]+0.083*[#   3]+0.056*[#   5]
          +0.028*[#   4]+0.002*[#   6]
    |psi|^2 = 0.999
==== e(   4) =    -0.39952 eV ==== 
     psi = 0.630*[#   9]+0.280*[#   7]+0.043*[#   8]+0.031*[#   5]+0.014*[#   3]
          +0.002*[#   4]
    |psi|^2 = 0.999
==== e(   5) =    -0.39952 eV ==== 
     psi = 0.751*[#   8]+0.196*[#   7]+0.037*[#   4]+0.010*[#   3]+0.005*[#   9]
          
    |psi|^2 = 0.999
==== e(   6) =    14.76687 eV ==== 
[...]
    |psi|^2 = 1.000
==== e(   2) =   -18.70794 eV ==== 
     psi = 0.973*[#   6]+0.009*[#   3]+0.008*[#   2]+0.006*[#   5]+0.003*[#   4]
          
    |psi|^2 = 1.000
==== e(   3) =    -2.10748 eV ==== 
     psi = 0.427*[#   7]+0.285*[#   9]+0.142*[#   8]+0.073*[#   3]+0.049*[#   5]
          +0.024*[#   4]
    |psi|^2 = 0.999
==== e(   4) =    -0.67015 eV ==== 
     psi = 0.628*[#   8]+0.314*[#   9]+0.038*[#   4]+0.019*[#   5]
    |psi|^2 = 0.999
==== e(   5) =    -0.33996 eV ==== 
     psi = 0.483*[#   7]+0.322*[#   9]+0.161*[#   8]+0.011*[#   3]+0.010*[#   2]
          +0.008*[#   5]+0.004*[#   4]
    |psi|^2 = 0.999
==== e(   6) =    14.98898 eV ==== 
     psi = 0.415*[#   3]+0.277*[#   5]+0.138*[#   4]+0.072*[#   7]+0.048*[#   9]
          +0.024*[#   8]
    |psi|^2 = 0.973
==== e(   7) =    16.09629 eV ==== 
     psi = 0.458*[#   4]+0.229*[#   5]+0.027*[#   8]+0.014*[#   9]
    |psi|^2 = 0.728
==== e(   8) =    17.51153 eV ==== 
     psi = 0.560*[#   2]+0.166*[#   3]+0.110*[#   5]+0.055*[#   4]+0.023*[#   1]
          +0.021*[#   6]
    |psi|^2 = 0.936
==== e(   9) =    19.82771 eV ==== 
     psi = 0.347*[#   2]+0.285*[#   3]+0.190*[#   5]+0.095*[#   4]+0.016*[#   7]
          +0.011*[#   9]+0.006*[#   1]+0.005*[#   8]+0.002*[#   6]
    |psi|^2 = 0.957

 k =   0.2289492447 -0.3237831269  0.6034482759
==== e(   1) =   -40.39455 eV ==== 
     psi = 0.968*[#   1]+0.028*[#   2]
    |psi|^2 = 1.000
==== e(   2) =   -18.70673 eV ==== 
     psi = 0.975*[#   6]+0.009*[#   2]+0.008*[#   3]+0.005*[#   5]+0.003*[#   4]
          
    |psi|^2 = 1.000
==== e(   3) =    -2.13625 eV ==== 
     psi = 0.426*[#   7]+0.284*[#   9]+0.142*[#   8]+0.074*[#   3]+0.049*[#   5]
          +0.025*[#   4]
    |psi|^2 = 0.999
==== e(   4) =    -0.63435 eV ==== 
     psi = 0.629*[#   8]+0.314*[#   9]+0.037*[#   4]+0.019*[#   5]
    |psi|^2 = 0.999
==== e(   5) =    -0.34949 eV ==== 
     psi = 0.482*[#   7]+0.321*[#   9]+0.161*[#   8]+0.013*[#   3]+0.009*[#   2]
          +0.008*[#   5]+0.004*[#   4]
    |psi|^2 = 0.999
==== e(   6) =    14.98288 eV ==== 
     psi = 0.414*[#   3]+0.276*[#   5]+0.138*[#   4]+0.073*[#   7]+0.049*[#   9]
          +0.024*[#   8]
    |psi|^2 = 0.974
==== e(   7) =    16.17041 eV ==== 
     psi = 0.430*[#   4]+0.215*[#   5]+0.025*[#   8]+0.012*[#   9]
    |psi|^2 = 0.683
==== e(   8) =    17.50716 eV ==== 
     psi = 0.606*[#   2]+0.144*[#   3]+0.096*[#   5]+0.048*[#   4]+0.025*[#   1]
          +0.020*[#   6]
    |psi|^2 = 0.939
==== e(   9) =    19.88252 eV ==== 
     psi = 0.309*[#   3]+0.301*[#   2]+0.206*[#   5]+0.103*[#   4]+0.017*[#   7]
          +0.011*[#   9]+0.006*[#   8]+0.005*[#   1]+0.002*[#   6]
    |psi|^2 = 0.958

 k =   0.2339264022 -0.3308218906  0.5948275862
==== e(   1) =   -40.39459 eV ==== 
     psi = 0.968*[#   1]+0.029*[#   2]
    |psi|^2 = 1.000
==== e(   2) =   -18.70555 eV ==== 
     psi = 0.976*[#   6]+0.010*[#   2]+0.007*[#   3]+0.004*[#   5]+0.002*[#   4]
          
    |psi|^2 = 1.000
==== e(   3) =    -2.16293 eV ==== 
     psi = 0.424*[#   7]+0.283*[#   9]+0.141*[#   8]+0.075*[#   3]+0.050*[#   5]
          +0.025*[#   4]
    |psi|^2 = 0.999
==== e(   4) =    -0.60083 eV ==== 
     psi = 0.630*[#   8]+0.315*[#   9]+0.036*[#   4]+0.018*[#   5]
    |psi|^2 = 0.999
==== e(   5) =    -0.35870 eV ==== 
     psi = 0.481*[#   7]+0.321*[#   9]+0.160*[#   8]+0.014*[#   3]+0.009*[#   5]
          +0.008*[#   2]+0.005*[#   4]
    |psi|^2 = 0.999
==== e(   6) =    14.97753 eV ==== 
     psi = 0.413*[#   3]+0.275*[#   5]+0.138*[#   4]+0.074*[#   7]+0.049*[#   9]
          +0.025*[#   8]
    |psi|^2 = 0.974
==== e(   7) =    16.24567 eV ==== 
     psi = 0.399*[#   4]+0.199*[#   5]+0.022*[#   8]+0.011*[#   9]
    |psi|^2 = 0.632
==== e(   8) =    17.50307 eV ==== 
     psi = 0.650*[#   2]+0.124*[#   3]+0.082*[#   5]+0.041*[#   4]+0.026*[#   1]
          +0.019*[#   6]
    |psi|^2 = 0.942
==== e(   9) =    19.93598 eV ==== 
     psi = 0.331*[#   3]+0.258*[#   2]+0.221*[#   5]+0.110*[#   4]+0.018*[#   7]
          +0.012*[#   9]+0.006*[#   8]+0.004*[#   1]+0.002*[#   6]
    |psi|^2 = 0.960

 k =   0.2389035596 -0.3378606541  0.5862068966
==== e(   1) =   -40.39462 eV ==== 
     psi = 0.968*[#   1]+0.029*[#   2]
    |psi|^2 = 1.000
==== e(   2) =   -18.70443 eV ==== 
     psi = 0.977*[#   6]+0.011*[#   2]+0.006*[#   3]+0.004*[#   5]+0.002*[#   4]
          
    |psi|^2 = 1.000
==== e(   3) =    -2.18747 eV ==== 
     psi = 0.423*[#   7]+0.282*[#   9]+0.141*[#   8]+0.076*[#   3]+0.051*[#   5]
          +0.025*[#   4]
    |psi|^2 = 0.999
==== e(   4) =    -0.56973 eV ==== 
     psi = 0.631*[#   8]+0.315*[#   9]+0.035*[#   4]+0.018*[#   5]
    |psi|^2 = 0.999
==== e(   5) =    -0.36751 eV ==== 
     psi = 0.481*[#   7]+0.320*[#   9]+0.160*[#   8]+0.015*[#   3]+0.010*[#   5]
          +0.006*[#   2]+0.005*[#   4]
    |psi|^2 = 0.999
==== e(   6) =    14.97286 eV ==== 
     psi = 0.412*[#   3]+0.275*[#   5]+0.137*[#   4]+0.075*[#   7]+0.050*[#   9]
          +0.025*[#   8]
    |psi|^2 = 0.975
==== e(   7) =    16.32142 eV ==== 
     psi = 0.363*[#   4]+0.182*[#   5]+0.020*[#   8]+0.010*[#   9]
    |psi|^2 = 0.575
==== e(   8) =    17.49928 eV ==== 
     psi = 0.692*[#   2]+0.104*[#   3]+0.069*[#   5]+0.035*[#   4]+0.027*[#   1]
          +0.018*[#   6]
    |psi|^2 = 0.945
==== e(   9) =    19.98748 eV ==== 
     psi = 0.352*[#   3]+0.235*[#   5]+0.216*[#   2]+0.117*[#   4]+0.018*[#   7]
          +0.012*[#   9]+0.006*[#   8]+0.003*[#   1]+0.002*[#   6]
    |psi|^2 = 0.962

 k =   0.2438807172 -0.3448994178  0.5775862069
==== e(   1) =   -40.39465 eV ==== 
     psi = 0.968*[#   1]+0.029*[#   2]
    |psi|^2 = 1.000
==== e(   2) =   -18.70336 eV ==== 
     psi = 0.978*[#   6]+0.012*[#   2]+0.005*[#   3]+0.003*[#   5]+0.002*[#   4]
          
    |psi|^2 = 1.000
==== e(   3) =    -2.20982 eV ==== 
     psi = 0.422*[#   7]+0.281*[#   9]+0.141*[#   8]+0.078*[#   3]+0.052*[#   5]
          +0.026*[#   4]
    |psi|^2 = 0.999
==== e(   4) =    -0.54119 eV ==== 
     psi = 0.631*[#   8]+0.316*[#   9]+0.035*[#   4]+0.017*[#   5]
    |psi|^2 = 0.999
==== e(   5) =    -0.37582 eV ==== 
     psi = 0.480*[#   7]+0.320*[#   9]+0.160*[#   8]+0.017*[#   3]+0.011*[#   5]
          +0.006*[#   4]+0.005*[#   2]
    |psi|^2 = 0.999
==== e(   6) =    14.96881 eV ==== 
     psi = 0.411*[#   3]+0.274*[#   5]+0.137*[#   4]+0.076*[#   7]+0.051*[#   9]
          +0.025*[#   8]
    |psi|^2 = 0.976
==== e(   7) =    16.39685 eV ==== 
     psi = 0.324*[#   4]+0.162*[#   5]+0.017*[#   8]+0.009*[#   9]
    |psi|^2 = 0.512
==== e(   8) =    17.49578 eV ==== 
     psi = 0.731*[#   2]+0.086*[#   3]+0.057*[#   5]+0.029*[#   4]+0.027*[#   1]
          +0.017*[#   6]
    |psi|^2 = 0.947
==== e(   9) =    20.03635 eV ==== 
     psi = 0.372*[#   3]+0.248*[#   5]+0.178*[#   2]+0.124*[#   4]+0.019*[#   7]
          +0.013*[#   9]+0.006*[#   8]+0.002*[#   1]+0.002*[#   6]
    |psi|^2 = 0.963

 k =   0.2488578747 -0.3519381815  0.5689655172
==== e(   1) =   -40.39470 eV ==== 
     psi = 0.968*[#   1]+0.030*[#   2]
    |psi|^2 = 1.000
==== e(   2) =   -18.70237 eV ==== 
     psi = 0.979*[#   6]+0.012*[#   2]+0.004*[#   3]+0.003*[#   5]+0.001*[#   4]
          
    |psi|^2 = 1.000
==== e(   3) =    -2.22993 eV ==== 
     psi = 0.421*[#   7]+0.281*[#   9]+0.140*[#   8]+0.078*[#   3]+0.052*[#   5]
          +0.026*[#   4]
    |psi|^2 = 0.999
==== e(   4) =    -0.51531 eV ==== 
     psi = 0.632*[#   8]+0.316*[#   9]+0.034*[#   4]+0.017*[#   5]
    |psi|^2 = 0.999
==== e(   5) =    -0.38353 eV ==== 
     psi = 0.479*[#   7]+0.319*[#   9]+0.160*[#   8]+0.018*[#   3]+0.012*[#   5]
          +0.006*[#   4]+0.004*[#   2]
    |psi|^2 = 0.999
==== e(   6) =    14.96533 eV ==== 
     psi = 0.411*[#   3]+0.274*[#   5]+0.137*[#   4]+0.077*[#   7]+0.052*[#   9]
          +0.026*[#   8]
    |psi|^2 = 0.976
==== e(   7) =    16.47094 eV ==== 
     psi = 0.281*[#   4]+0.140*[#   5]+0.015*[#   8]+0.007*[#   9]
    |psi|^2 = 0.443
==== e(   8) =    17.49260 eV ==== 
     psi = 0.766*[#   2]+0.069*[#   3]+0.046*[#   5]+0.028*[#   1]+0.023*[#   4]
          +0.016*[#   6]
    |psi|^2 = 0.949
==== e(   9) =    20.08200 eV ==== 
     psi = 0.390*[#   3]+0.260*[#   5]+0.142*[#   2]+0.130*[#   4]+0.020*[#   7]
          +0.013*[#   9]+0.007*[#   8]+0.002*[#   1]+0.001*[#   6]
    |psi|^2 = 0.965

 k =   0.2538350321 -0.3589769451  0.5603448276
==== e(   1) =   -40.39472 eV ==== 
     psi = 0.968*[#   1]+0.030*[#   2]
    |psi|^2 = 1.000
==== e(   2) =   -18.70147 eV ==== 
     psi = 0.980*[#   6]+0.013*[#   2]+0.003*[#   3]+0.002*[#   5]
    |psi|^2 = 1.000
==== e(   3) =    -2.24777 eV ==== 
     psi = 0.420*[#   7]+0.280*[#   9]+0.140*[#   8]+0.079*[#   3]+0.053*[#   5]
          +0.026*[#   4]
    |psi|^2 = 0.999
==== e(   4) =    -0.49221 eV ==== 
     psi = 0.633*[#   8]+0.316*[#   9]+0.033*[#   4]+0.017*[#   5]
    |psi|^2 = 0.999
==== e(   5) =    -0.39054 eV ==== 
     psi = 0.479*[#   7]+0.319*[#   9]+0.160*[#   8]+0.019*[#   3]+0.013*[#   5]
          +0.006*[#   4]+0.003*[#   2]
    |psi|^2 = 0.999
==== e(   6) =    14.96238 eV ==== 
     psi = 0.410*[#   3]+0.274*[#   5]+0.137*[#   4]+0.078*[#   7]+0.052*[#   9]
          +0.026*[#   8]
    |psi|^2 = 0.977
==== e(   7) =    16.54247 eV ==== 
     psi = 0.235*[#   4]+0.118*[#   5]+0.012*[#   8]+0.006*[#   9]
    |psi|^2 = 0.371
==== e(   8) =    17.48978 eV ==== 
     psi = 0.799*[#   2]+0.053*[#   3]+0.036*[#   5]+0.029*[#   1]+0.018*[#   4]
          +0.016*[#   6]
    |psi|^2 = 0.950
==== e(   9) =    20.12384 eV ==== 
     psi = 0.406*[#   3]+0.271*[#   5]+0.135*[#   4]+0.110*[#   2]+0.021*[#   7]
          +0.014*[#   9]+0.007*[#   8]+0.001*[#   1]+0.001*[#   6]
    |psi|^2 = 0.967

 k =   0.2588121897 -0.3660157087  0.5517241379
==== e(   1) =   -40.39476 eV ==== 
     psi = 0.968*[#   1]+0.030*[#   2]
    |psi|^2 = 1.000
==== e(   2) =   -18.70066 eV ==== 
     psi = 0.981*[#   6]+0.014*[#   2]+0.002*[#   3]+0.001*[#   5]
    |psi|^2 = 1.000
==== e(   3) =    -2.26331 eV ==== 
     psi = 0.419*[#   7]+0.280*[#   9]+0.140*[#   8]+0.080*[#   3]+0.053*[#   5]
          +0.027*[#   4]
    |psi|^2 = 0.999
==== e(   4) =    -0.47198 eV ==== 
     psi = 0.633*[#   8]+0.317*[#   9]+0.033*[#   4]+0.016*[#   5]
    |psi|^2 = 0.999
==== e(   5) =    -0.39679 eV ==== 
     psi = 0.478*[#   7]+0.319*[#   9]+0.159*[#   8]+0.020*[#   3]+0.013*[#   5]
          +0.007*[#   4]+0.003*[#   2]
    |psi|^2 = 0.999
==== e(   6) =    14.95990 eV ==== 
     psi = 0.410*[#   3]+0.273*[#   5]+0.137*[#   4]+0.079*[#   7]+0.053*[#   9]
          +0.026*[#   8]
    |psi|^2 = 0.978
==== e(   7) =    16.60999 eV ==== 
     psi = 0.188*[#   4]+0.094*[#   5]+0.009*[#   8]+0.005*[#   9]
    |psi|^2 = 0.296
==== e(   8) =    17.48729 eV ==== 
     psi = 0.828*[#   2]+0.040*[#   3]+0.029*[#   1]+0.026*[#   5]+0.015*[#   6]
          +0.013*[#   4]
    |psi|^2 = 0.951
==== e(   9) =    20.16134 eV ==== 
     psi = 0.421*[#   3]+0.281*[#   5]+0.140*[#   4]+0.082*[#   2]+0.021*[#   7]
          +0.014*[#   9]+0.007*[#   8]
    |psi|^2 = 0.968

 k =   0.2637893471 -0.3730544723  0.5431034483
==== e(   1) =   -40.39478 eV ==== 
     psi = 0.968*[#   1]+0.031*[#   2]
    |psi|^2 = 1.000
==== e(   2) =   -18.69997 eV ==== 
     psi = 0.982*[#   6]+0.014*[#   2]+0.002*[#   3]+0.001*[#   5]
    |psi|^2 = 1.000
==== e(   3) =    -2.27650 eV ==== 
     psi = 0.419*[#   7]+0.279*[#   9]+0.140*[#   8]+0.081*[#   3]+0.054*[#   5]
          +0.027*[#   4]
    |psi|^2 = 0.999
==== e(   4) =    -0.45471 eV ==== 
     psi = 0.634*[#   8]+0.317*[#   9]+0.032*[#   4]+0.016*[#   5]
    |psi|^2 = 0.999
==== e(   5) =    -0.40220 eV ==== 
     psi = 0.477*[#   7]+0.318*[#   9]+0.159*[#   8]+0.021*[#   3]+0.014*[#   5]
          +0.007*[#   4]+0.002*[#   2]
    |psi|^2 = 0.999
==== e(   6) =    14.95786 eV ==== 
     psi = 0.409*[#   3]+0.273*[#   5]+0.136*[#   4]+0.080*[#   7]+0.053*[#   9]
          +0.027*[#   8]
    |psi|^2 = 0.978
==== e(   7) =    16.67184 eV ==== 
     psi = 0.141*[#   4]+0.071*[#   5]+0.007*[#   8]+0.003*[#   9]
    |psi|^2 = 0.222
==== e(   8) =    17.48517 eV ==== 
     psi = 0.853*[#   2]+0.030*[#   1]+0.028*[#   3]+0.019*[#   5]+0.014*[#   6]
          +0.009*[#   4]
    |psi|^2 = 0.952
==== e(   9) =    20.19397 eV ==== 
     psi = 0.433*[#   3]+0.289*[#   5]+0.144*[#   4]+0.057*[#   2]+0.022*[#   7]
          +0.015*[#   9]+0.007*[#   8]
    |psi|^2 = 0.969

 k =   0.2687665046 -0.3800932360  0.5344827586
==== e(   1) =   -40.39484 eV ==== 
     psi = 0.968*[#   1]+0.031*[#   2]
    |psi|^2 = 1.000
==== e(   2) =   -18.69939 eV ==== 
     psi = 0.983*[#   6]+0.015*[#   2]+0.001*[#   3]
    |psi|^2 = 1.000
==== e(   3) =    -2.28733 eV ==== 
     psi = 0.418*[#   7]+0.279*[#   9]+0.139*[#   8]+0.081*[#   3]+0.054*[#   5]
          +0.027*[#   4]
    |psi|^2 = 0.999
==== e(   4) =    -0.44049 eV ==== 
     psi = 0.634*[#   8]+0.317*[#   9]+0.032*[#   4]+0.016*[#   5]
    |psi|^2 = 0.999
==== e(   5) =    -0.40673 eV ==== 
     psi = 0.477*[#   7]+0.318*[#   9]+0.159*[#   8]+0.022*[#   3]+0.015*[#   5]
          +0.007*[#   4]+0.001*[#   2]
    |psi|^2 = 0.999
==== e(   6) =    14.95624 eV ==== 
     psi = 0.409*[#   3]+0.273*[#   5]+0.136*[#   4]+0.080*[#   7]+0.054*[#   9]
          +0.027*[#   8]
    |psi|^2 = 0.979
==== e(   7) =    16.72619 eV ==== 
     psi = 0.097*[#   4]+0.048*[#   5]+0.005*[#   8]+0.002*[#   9]
    |psi|^2 = 0.152
==== e(   8) =    17.48337 eV ==== 
     psi = 0.873*[#   2]+0.030*[#   1]+0.018*[#   3]+0.014*[#   6]+0.012*[#   5]
          +0.006*[#   4]
    |psi|^2 = 0.953
==== e(   9) =    20.22132 eV ==== 
     psi = 0.444*[#   3]+0.296*[#   5]+0.148*[#   4]+0.037*[#   2]+0.023*[#   7]
          +0.015*[#   9]+0.008*[#   8]
    |psi|^2 = 0.971

 k =   0.2737436621 -0.3871319996  0.5258620690
==== e(   1) =   -40.39486 eV ==== 
     psi = 0.968*[#   1]+0.031*[#   2]
    |psi|^2 = 1.000
==== e(   2) =   -18.69893 eV ==== 
     psi = 0.983*[#   6]+0.015*[#   2]
    |psi|^2 = 1.000
==== e(   3) =    -2.29578 eV ==== 
     psi = 0.418*[#   7]+0.279*[#   9]+0.139*[#   8]+0.082*[#   3]+0.055*[#   5]
          +0.027*[#   4]
    |psi|^2 = 0.999
==== e(   4) =    -0.42935 eV ==== 
     psi = 0.635*[#   8]+0.317*[#   9]+0.032*[#   4]+0.016*[#   5]
    |psi|^2 = 0.999
==== e(   5) =    -0.41030 eV ==== 
     psi = 0.477*[#   7]+0.318*[#   9]+0.159*[#   8]+0.023*[#   3]+0.015*[#   5]
          +0.008*[#   4]
    |psi|^2 = 0.999
==== e(   6) =    14.95501 eV ==== 
     psi = 0.409*[#   3]+0.273*[#   5]+0.136*[#   4]+0.081*[#   7]+0.054*[#   9]
          +0.027*[#   8]
    |psi|^2 = 0.979
==== e(   7) =    16.77112 eV ==== 
     psi = 0.058*[#   4]+0.029*[#   5]+0.003*[#   8]+0.001*[#   9]
    |psi|^2 = 0.090
==== e(   8) =    17.48199 eV ==== 
     psi = 0.890*[#   2]+0.030*[#   1]+0.014*[#   6]+0.010*[#   3]+0.007*[#   5]
          +0.003*[#   4]
    |psi|^2 = 0.954
==== e(   9) =    20.24300 eV ==== 
     psi = 0.452*[#   3]+0.301*[#   5]+0.151*[#   4]+0.023*[#   7]+0.021*[#   2]
          +0.015*[#   9]+0.008*[#   8]
    |psi|^2 = 0.971

 k =   0.2787208196 -0.3941707632  0.5172413793
==== e(   1) =   -40.39489 eV ==== 
     psi = 0.968*[#   1]+0.031*[#   2]
    |psi|^2 = 1.000
==== e(   2) =   -18.69859 eV ==== 
     psi = 0.984*[#   6]+0.015*[#   2]
    |psi|^2 = 1.000
==== e(   3) =    -2.30183 eV ==== 
     psi = 0.418*[#   7]+0.278*[#   9]+0.139*[#   8]+0.082*[#   3]+0.055*[#   5]
          +0.027*[#   4]
    |psi|^2 = 0.999
==== e(   4) =    -0.42137 eV ==== 
     psi = 0.635*[#   8]+0.317*[#   9]+0.031*[#   4]+0.016*[#   5]
    |psi|^2 = 0.999
==== e(   5) =    -0.41288 eV ==== 
     psi = 0.476*[#   7]+0.318*[#   9]+0.159*[#   8]+0.023*[#   3]+0.015*[#   5]
          +0.008*[#   4]
    |psi|^2 = 0.999
==== e(   6) =    14.95414 eV ==== 
     psi = 0.409*[#   3]+0.273*[#   5]+0.136*[#   4]+0.081*[#   7]+0.054*[#   9]
          +0.027*[#   8]
    |psi|^2 = 0.980
==== e(   7) =    16.80482 eV ==== 
     psi = 0.027*[#   4]+0.013*[#   5]+0.001*[#   8]
    |psi|^2 = 0.042
==== e(   8) =    17.48100 eV ==== 
     psi = 0.901*[#   2]+0.030*[#   1]+0.014*[#   6]+0.005*[#   3]+0.003*[#   5]
          +0.002*[#   4]
    |psi|^2 = 0.954
==== e(   9) =    20.25870 eV ==== 
     psi = 0.458*[#   3]+0.305*[#   5]+0.153*[#   4]+0.023*[#   7]+0.016*[#   9]
          +0.009*[#   2]+0.008*[#   8]
    |psi|^2 = 0.972

 k =   0.2836979771 -0.4012095268  0.5086206897
==== e(   1) =   -40.39490 eV ==== 
     psi = 0.968*[#   1]+0.031*[#   2]
    |psi|^2 = 1.000
==== e(   2) =   -18.69839 eV ==== 
     psi = 0.984*[#   6]+0.015*[#   2]
    |psi|^2 = 1.000
==== e(   3) =    -2.30546 eV ==== 
     psi = 0.417*[#   7]+0.278*[#   9]+0.139*[#   8]+0.082*[#   3]+0.055*[#   5]
          +0.027*[#   4]
    |psi|^2 = 0.999
==== e(   4) =    -0.41656 eV ==== 
     psi = 0.635*[#   8]+0.317*[#   9]+0.031*[#   4]+0.016*[#   5]
    |psi|^2 = 0.999
==== e(   5) =    -0.41443 eV ==== 
     psi = 0.476*[#   7]+0.318*[#   9]+0.159*[#   8]+0.023*[#   3]+0.016*[#   5]
          +0.008*[#   4]
    |psi|^2 = 0.999
==== e(   6) =    14.95363 eV ==== 
     psi = 0.409*[#   3]+0.272*[#   5]+0.136*[#   4]+0.081*[#   7]+0.054*[#   9]
          +0.027*[#   8]
    |psi|^2 = 0.980
==== e(   7) =    16.82573 eV ==== 
     psi = 0.007*[#   4]+0.003*[#   5]
    |psi|^2 = 0.011
==== e(   8) =    17.48041 eV ==== 
     psi = 0.908*[#   2]+0.030*[#   1]+0.013*[#   6]+0.001*[#   3]
    |psi|^2 = 0.954
==== e(   9) =    20.26821 eV ==== 
     psi = 0.462*[#   3]+0.308*[#   5]+0.154*[#   4]+0.023*[#   7]+0.016*[#   9]
          +0.008*[#   8]+0.002*[#   2]
    |psi|^2 = 0.972

 k =   0.2886751346 -0.4082482905  0.5000000000
==== e(   1) =   -40.39490 eV ==== 
     psi = 0.968*[#   1]+0.031*[#   2]
    |psi|^2 = 1.000
==== e(   2) =   -18.69833 eV ==== 
     psi = 0.984*[#   6]+0.015*[#   2]
    |psi|^2 = 1.000
==== e(   3) =    -2.30667 eV ==== 
     psi = 0.417*[#   7]+0.278*[#   9]+0.139*[#   8]+0.082*[#   3]+0.055*[#   5]
          +0.027*[#   4]
    |psi|^2 = 0.999
==== e(   4) =    -0.41495 eV ==== 
     psi = 0.728*[#   8]+0.224*[#   7]+0.036*[#   4]+0.011*[#   3]
    |psi|^2 = 0.999
==== e(   5) =    -0.41495 eV ==== 
     psi = 0.634*[#   9]+0.252*[#   7]+0.066*[#   8]+0.031*[#   5]+0.012*[#   3]
          +0.003*[#   4]
    |psi|^2 = 0.999
==== e(   6) =    14.95346 eV ==== 
     psi = 0.409*[#   3]+0.272*[#   5]+0.136*[#   4]+0.081*[#   7]+0.054*[#   9]
          +0.027*[#   8]
    |psi|^2 = 0.980
==== e(   7) =    16.83283 eV ==== 

    |psi|^2 = 0.000
==== e(   8) =    17.48021 eV ==== 
     psi = 0.911*[#   2]+0.030*[#   1]+0.013*[#   6]
    |psi|^2 = 0.955
==== e(   9) =    20.27140 eV ==== 
     psi = 0.498*[#   5]+0.357*[#   4]+0.070*[#   3]+0.025*[#   9]+0.018*[#   8]
          +0.004*[#   7]
    |psi|^2 = 0.973

Lowdin Charges: 

     Atom #   1: total charge =   2.6021, s =  2.1302, p =  0.4718, 
                 spin up      =   1.3010, s =  1.0651, 
                 spin up      =   1.3010, p =  0.2359, pz=  0.1311, px=  0.0512, py=  0.0536, 
                 spin down    =   1.3010, s =  1.0651, 
                 spin down    =   1.3010, p =  0.2359, pz=  0.1311, px=  0.0512, py=  0.0536, 
                 polarization =   0.0000, s =  0.0000, p =  0.0000, 
     Atom #   2: total charge =   7.3879, s =  1.7012, p =  5.6867, 
                 spin up      =   3.6939, s =  0.8506, 
                 spin up      =   3.6939, p =  2.8433, pz=  0.9280, px=  0.9580, py=  0.9573, 
                 spin down    =   3.6939, s =  0.8506, 
                 spin down    =   3.6939, p =  2.8433, pz=  0.9280, px=  0.9580, py=  0.9573, 
                 polarization =  -0.0000, s = -0.0000, p = -0.0000, 
     Spilling Parameter:   0.0010

     PROJWFC      :     51.31s CPU   1m47.00s WALL


   This run was terminated on:  12:32:51  31Aug2020            

=------------------------------------------------------------------------------=
   JOB DONE.
=------------------------------------------------------------------------------=
