
     Program PWSCF v.6.3MaX starts on 27Aug2020 at 13:58:21 

     This program is part of the open-source Quantum ESPRESSO suite
     for quantum simulation of materials; please cite
         "P. Giannozzi et al., J. Phys.:Condens. Matter 21 395502 (2009);
         "P. Giannozzi et al., J. Phys.:Condens. Matter 29 465901 (2017);
          URL http://www.quantum-espresso.org", 
     in publications or presentations arising from this work. More details at
     http://www.quantum-espresso.org/quote

     Parallel version (MPI), running on    16 processors

     MPI processes distributed on     1 nodes
     R & G space division:  proc/nbgrp/npool/nimage =      16
     Waiting for input...
     Reading input from standard input

     Current dimensions of program PWSCF are:
     Max number of different atomic species (ntypx) = 10
     Max number of k-points (npk) =  40000
     Max angular momentum in pseudopotentials (lmaxx) =  3
               file Nb.pbe-spn-kjpaw_psl.1.0.0.UPF: wavefunction(s)  4S 4P 4D renormalized
               file O.pbe-n-kjpaw_psl.1.0.0.UPF: wavefunction(s)  2S 2P renormalized

     Subspace diagonalization in iterative solution of the eigenvalue problem:
     a serial algorithm will be used


     Parallelization info
     --------------------
     sticks:   dense  smooth     PW     G-vecs:    dense   smooth      PW
     Min         275     183     51                11652     6337     954
     Max         276     184     52                11654     6341     957
     Sum        4407    2933    827               186447   101415   15289



     bravais-lattice index     =            0
     lattice parameter (alat)  =      10.5681  a.u.
     unit-cell volume          =     750.8677 (a.u.)^3
     number of atoms/cell      =           10
     number of atomic types    =            3
     number of electrons       =        68.00
     number of Kohn-Sham states=           48
     kinetic-energy cutoff     =     100.0000  Ry
     charge density cutoff     =     600.0000  Ry
     convergence threshold     =      1.0E-08
     mixing beta               =       0.7000
     number of iterations used =            8  plain     mixing
     Exchange-correlation      = SLA PW PBX PBC ( 1  4  3  4 0 0)

     celldm(1)=  10.568104  celldm(2)=   0.000000  celldm(3)=   0.000000
     celldm(4)=   0.000000  celldm(5)=   0.000000  celldm(6)=   0.000000

     crystal axes: (cart. coord. in units of alat)
               a(1) = (   1.000000   0.000000   0.000000 )  
               a(2) = (   0.563874   0.825861   0.000000 )  
               a(3) = (   0.563874   0.297774   0.770309 )  

     reciprocal axes: (cart. coord. in units 2 pi/alat)
               b(1) = (  1.000000 -0.682771 -0.468075 )  
               b(2) = (  0.000000  1.210858 -0.468075 )  
               b(3) = (  0.000000  0.000000  1.298180 )  


     PseudoPot. # 1 for Nb read from file:
     /scratch/lllang/LiNbO3/pseudos/Nb.pbe-spn-kjpaw_psl.1.0.0.UPF
     MD5 check sum: dcedcbb129af9a7271e4748e5febedb1
     Pseudo is Projector augmented-wave + core cor, Zval = 13.0
     Generated using "atomic" code by A. Dal Corso v.6.2.2
     Shape of augmentation charge: PSQ
     Using radial grid of 1227 points,  6 beta functions with: 
                l(1) =   0
                l(2) =   0
                l(3) =   1
                l(4) =   1
                l(5) =   2
                l(6) =   2
     Q(r) pseudized with 0 coefficients 


     PseudoPot. # 2 for O  read from file:
     /scratch/lllang/LiNbO3/pseudos/O.pbe-n-kjpaw_psl.1.0.0.UPF
     MD5 check sum: e99d9cef9b487d1ca56f5b95ecd0fd7a
     Pseudo is Projector augmented-wave + core cor, Zval =  6.0
     Generated using "atomic" code by A. Dal Corso v.6.3
     Shape of augmentation charge: PSQ
     Using radial grid of 1095 points,  4 beta functions with: 
                l(1) =   0
                l(2) =   0
                l(3) =   1
                l(4) =   1
     Q(r) pseudized with 0 coefficients 


     PseudoPot. # 3 for Li read from file:
     /scratch/lllang/LiNbO3/pseudos/Li.pbe-s-kjpaw_psl.1.0.0.UPF
     MD5 check sum: 3974953fb0fea6c4f83fb01d64ffc134
     Pseudo is Projector augmented-wave, Zval =  3.0
     Generated using "atomic" code by A. Dal Corso v.6.3
     Shape of augmentation charge: PSQ
     Using radial grid of 1017 points,  4 beta functions with: 
                l(1) =   0
                l(2) =   0
                l(3) =   1
                l(4) =   1
     Q(r) pseudized with 0 coefficients 


     atomic species   valence    mass     pseudopotential
        Nb            13.00    92.90600     Nb( 1.00)
        O              6.00    15.99900     O ( 1.00)
        Li             3.00     6.96750     Li( 1.00)

     No symmetry found



   Cartesian axes

     site n.     atom                  positions (alat units)
         1           Nb  tau(   1) = (   2.1261116   1.1227711   0.7697171  )
         2           Nb  tau(   2) = (   1.0622377   0.5609535   0.3845624  )
         3           O   tau(   3) = (   1.2995952   0.8186817   0.2156474  )
         4           O   tau(   4) = (   1.4089250   0.4216804   0.4927547  )
         5           O   tau(   5) = (   1.1427054   0.7934187   0.6858589  )
         6           O   tau(   6) = (   0.9089250   0.3476083   0.6008021  )
         7           O   tau(   7) = (   0.7995952   0.7603709   0.3007042  )
         8           O   tau(   8) = (   1.0788315   0.3639840   0.1075999  )
         9           Li  tau(   9) = (   1.5259526   0.8058352   0.5524413  )
        10           Li  tau(  10) = (   0.4620787   0.2440176   0.1672866  )

     number of k points=   520  Marzari-Vanderbilt smearing, width (Ry)=  0.0050

     Number of k-points >= 100: set verbosity='high' to print them.

     Dense  grid:   186447 G-vectors     FFT dimensions: (  90,  90,  90)

     Smooth grid:   101415 G-vectors     FFT dimensions: (  72,  72,  72)

     Estimated max dynamical RAM per process >     356.33 MB

     Estimated total dynamical RAM >       5.57 GB

     Initial potential from superposition of free atoms

     starting charge   67.98816, renormalised to   68.00000
     Starting wfcs are   60 randomized atomic wfcs
     Checking if some PAW data can be deallocated... 

     total cpu time spent up to now is       29.1 secs

     Self-consistent Calculation

     iteration #  1     ecut=   100.00 Ry     beta= 0.70
     Davidson diagonalization with overlap
     ethr =  1.00E-02,  avg # of iterations =  4.1

     total cpu time spent up to now is       95.1 secs

     total energy              =    -947.62501923 Ry
     Harris-Foulkes estimate   =    -950.48874299 Ry
     estimated scf accuracy    <       3.66478133 Ry

     iteration #  2     ecut=   100.00 Ry     beta= 0.70
     Davidson diagonalization with overlap
     ethr =  5.39E-03,  avg # of iterations =  3.4

     total cpu time spent up to now is      175.6 secs

     total energy              =    -945.30909566 Ry
     Harris-Foulkes estimate   =    -952.91182185 Ry
     estimated scf accuracy    <      23.56376996 Ry

     iteration #  3     ecut=   100.00 Ry     beta= 0.70
     Davidson diagonalization with overlap
     ethr =  5.39E-03,  avg # of iterations =  3.5

     total cpu time spent up to now is      246.4 secs

     total energy              =    -949.60746121 Ry
     Harris-Foulkes estimate   =    -949.74072999 Ry
     estimated scf accuracy    <       0.46382089 Ry

     iteration #  4     ecut=   100.00 Ry     beta= 0.70
     Davidson diagonalization with overlap
     ethr =  6.82E-04,  avg # of iterations =  2.7

     total cpu time spent up to now is      305.7 secs

     total energy              =    -949.60989855 Ry
     Harris-Foulkes estimate   =    -949.70034755 Ry
     estimated scf accuracy    <       0.21121186 Ry

     iteration #  5     ecut=   100.00 Ry     beta= 0.70
     Davidson diagonalization with overlap
     ethr =  3.11E-04,  avg # of iterations =  2.0

     total cpu time spent up to now is      359.1 secs

     total energy              =    -949.64872032 Ry
     Harris-Foulkes estimate   =    -949.64894146 Ry
     estimated scf accuracy    <       0.00096075 Ry

     iteration #  6     ecut=   100.00 Ry     beta= 0.70
     Davidson diagonalization with overlap
     c_bands:  1 eigenvalues not converged
     c_bands:  2 eigenvalues not converged
     c_bands:  2 eigenvalues not converged
     c_bands:  2 eigenvalues not converged
     c_bands:  2 eigenvalues not converged
     c_bands:  2 eigenvalues not converged
     c_bands:  2 eigenvalues not converged
     c_bands:  2 eigenvalues not converged
     c_bands:  2 eigenvalues not converged
     c_bands:  2 eigenvalues not converged
     c_bands:  1 eigenvalues not converged
     c_bands:  2 eigenvalues not converged
     c_bands:  1 eigenvalues not converged
     c_bands:  2 eigenvalues not converged
     c_bands:  1 eigenvalues not converged
     c_bands:  1 eigenvalues not converged
     c_bands:  1 eigenvalues not converged
     c_bands:  1 eigenvalues not converged
     c_bands:  1 eigenvalues not converged
     c_bands:  1 eigenvalues not converged
     c_bands:  1 eigenvalues not converged
     ethr =  1.41E-06,  avg # of iterations =  5.9

     total cpu time spent up to now is      470.1 secs

     total energy              =    -949.65216617 Ry
     Harris-Foulkes estimate   =    -949.65259143 Ry
     estimated scf accuracy    <       0.00213976 Ry

     iteration #  7     ecut=   100.00 Ry     beta= 0.70
     Davidson diagonalization with overlap
     ethr =  1.41E-06,  avg # of iterations =  2.3

     total cpu time spent up to now is      523.2 secs

     total energy              =    -949.65192203 Ry
     Harris-Foulkes estimate   =    -949.65224185 Ry
     estimated scf accuracy    <       0.00077224 Ry

     iteration #  8     ecut=   100.00 Ry     beta= 0.70
     Davidson diagonalization with overlap
     ethr =  1.14E-06,  avg # of iterations =  1.8

     total cpu time spent up to now is      576.1 secs

     total energy              =    -949.65203622 Ry
     Harris-Foulkes estimate   =    -949.65205832 Ry
     estimated scf accuracy    <       0.00004943 Ry

     iteration #  9     ecut=   100.00 Ry     beta= 0.70
     Davidson diagonalization with overlap
     ethr =  7.27E-08,  avg # of iterations =  3.5

     total cpu time spent up to now is      651.1 secs

     total energy              =    -949.65205160 Ry
     Harris-Foulkes estimate   =    -949.65205734 Ry
     estimated scf accuracy    <       0.00001896 Ry

     iteration # 10     ecut=   100.00 Ry     beta= 0.70
     Davidson diagonalization with overlap
     ethr =  2.79E-08,  avg # of iterations =  1.3

     total cpu time spent up to now is      700.6 secs

     total energy              =    -949.65205325 Ry
     Harris-Foulkes estimate   =    -949.65205392 Ry
     estimated scf accuracy    <       0.00000203 Ry

     iteration # 11     ecut=   100.00 Ry     beta= 0.70
     Davidson diagonalization with overlap
     ethr =  2.98E-09,  avg # of iterations =  3.7

     total cpu time spent up to now is      773.2 secs

     total energy              =    -949.65205378 Ry
     Harris-Foulkes estimate   =    -949.65205386 Ry
     estimated scf accuracy    <       0.00000020 Ry

     iteration # 12     ecut=   100.00 Ry     beta= 0.70
     Davidson diagonalization with overlap
     c_bands:  1 eigenvalues not converged
     ethr =  3.01E-10,  avg # of iterations =  3.7

     total cpu time spent up to now is      836.3 secs

     total energy              =    -949.65205381 Ry
     Harris-Foulkes estimate   =    -949.65205385 Ry
     estimated scf accuracy    <       0.00000008 Ry

     iteration # 13     ecut=   100.00 Ry     beta= 0.70
     Davidson diagonalization with overlap
     c_bands:  1 eigenvalues not converged
     ethr =  1.21E-10,  avg # of iterations =  3.5

     total cpu time spent up to now is      899.5 secs

     End of self-consistent calculation

     Number of k-points >= 100: set verbosity='high' to print the bands.

     the Fermi energy is     7.1529 ev

!    total energy              =    -949.65205383 Ry
     Harris-Foulkes estimate   =    -949.65205384 Ry
     estimated scf accuracy    <          7.3E-09 Ry

     total all-electron energy =    -16214.145870 Ry

     The total energy is the sum of the following terms:

     one-electron contribution =    -150.52234896 Ry
     hartree contribution      =     109.08040325 Ry
     xc contribution           =     -89.07661384 Ry
     ewald contribution        =    -324.18369692 Ry
     one-center paw contrib.   =    -494.94979736 Ry
     smearing contrib. (-TS)   =       0.00000000 Ry

     convergence has been achieved in  13 iterations

     Writing output data file LiNbO3.save/

     init_run     :     26.80s CPU     27.25s WALL (       1 calls)
     electrons    :    863.79s CPU    870.45s WALL (       1 calls)

     Called by init_run:
     wfcinit      :     24.82s CPU     25.23s WALL (       1 calls)
     potinit      :      0.72s CPU      0.74s WALL (       1 calls)
     hinit0       :      1.12s CPU      1.14s WALL (       1 calls)

     Called by electrons:
     c_bands      :    744.80s CPU    750.37s WALL (      13 calls)
     sum_band     :    115.79s CPU    116.79s WALL (      13 calls)
     v_of_rho     :      0.56s CPU      0.56s WALL (      14 calls)
     newd         :      1.05s CPU      1.06s WALL (      14 calls)
     PAW_pot      :      1.74s CPU      1.77s WALL (      14 calls)
     mix_rho      :      0.05s CPU      0.05s WALL (      13 calls)

     Called by c_bands:
     init_us_2    :      7.12s CPU      8.33s WALL (   14040 calls)
     cegterg      :    725.79s CPU    731.21s WALL (    6760 calls)

     Called by sum_band:
     sum_band:bec :      0.13s CPU      0.28s WALL (    6760 calls)
     addusdens    :      1.06s CPU      1.07s WALL (      13 calls)

     Called by *egterg:
     h_psi        :    529.56s CPU    538.82s WALL (   28792 calls)
     s_psi        :     18.58s CPU     18.82s WALL (   28792 calls)
     g_psi        :      3.17s CPU      3.13s WALL (   21512 calls)
     cdiaghg      :    116.15s CPU    112.55s WALL (   28272 calls)

     Called by h_psi:
     h_psi:pot    :    527.96s CPU    536.42s WALL (   28792 calls)
     h_psi:calbec :     24.67s CPU     22.21s WALL (   28792 calls)
     vloc_psi     :    486.39s CPU    494.60s WALL (   28792 calls)
     add_vuspsi   :     16.86s CPU     19.52s WALL (   28792 calls)

     General routines
     calbec       :     32.66s CPU     29.28s WALL (   35552 calls)
     fft          :      0.28s CPU      0.28s WALL (     181 calls)
     ffts         :      0.01s CPU      0.01s WALL (      27 calls)
     fftw         :    521.57s CPU    524.87s WALL ( 2055842 calls)
     interpolate  :      0.03s CPU      0.03s WALL (      14 calls)

     Parallel routines
     fft_scatt_xy :     78.84s CPU     84.53s WALL ( 2056050 calls)
     fft_scatt_yz :    134.77s CPU    122.14s WALL ( 2056050 calls)

     PWSCF        : 14m56.38s CPU    15m56.37s WALL


   This run was terminated on:  14:14:17  27Aug2020            

=------------------------------------------------------------------------------=
   JOB DONE.
=------------------------------------------------------------------------------=
