
     Program PWSCF v.6.5 starts on  5Oct2020 at 23:57:20 

     This program is part of the open-source Quantum ESPRESSO suite
     for quantum simulation of materials; please cite
         "P. Giannozzi et al., J. Phys.:Condens. Matter 21 395502 (2009);
         "P. Giannozzi et al., J. Phys.:Condens. Matter 29 465901 (2017);
          URL http://www.quantum-espresso.org", 
     in publications or presentations arising from this work. More details at
     http://www.quantum-espresso.org/quote

     Parallel version (MPI), running on    16 processors

     MPI processes distributed on     1 nodes
     R & G space division:  proc/nbgrp/npool/nimage =      16
     Waiting for input...
     Reading input from standard input

     Current dimensions of program PWSCF are:
     Max number of different atomic species (ntypx) = 10
     Max number of k-points (npk) =  40000
     Max angular momentum in pseudopotentials (lmaxx) =  3

     Atomic positions and unit cell read from directory:
     ./LiF.save/                                                                                                                                                                                                                                                     

               file F.pbe-n-kjpaw_psl.1.0.0.UPF: wavefunction(s)  2S 2P renormalized

     Subspace diagonalization in iterative solution of the eigenvalue problem:
     a serial algorithm will be used


     Parallelization info
     --------------------
     sticks:   dense  smooth     PW     G-vecs:    dense   smooth      PW
     Min          77      51     15                 1785      973     168
     Max          78      52     16                 1788      977     172
     Sum        1237     823    253                28571    15593    2733



     bravais-lattice index     =            0
     lattice parameter (alat)  =       5.4564  a.u.
     unit-cell volume          =     114.8712 (a.u.)^3
     number of atoms/cell      =            2
     number of atomic types    =            2
     number of electrons       =        10.00
     number of Kohn-Sham states=            9
     kinetic-energy cutoff     =     100.0000  Ry
     charge density cutoff     =     600.0000  Ry
     Exchange-correlation= SLA PW PBX PBC
                           (   1   4   3   4   0   0   0)

     celldm(1)=   5.456431  celldm(2)=   0.000000  celldm(3)=   0.000000
     celldm(4)=   0.000000  celldm(5)=   0.000000  celldm(6)=   0.000000

     crystal axes: (cart. coord. in units of alat)
               a(1) = (   0.866025   0.000000   0.500000 )  
               a(2) = (   0.288675   0.816497   0.500000 )  
               a(3) = (   0.000000   0.000000   1.000000 )  

     reciprocal axes: (cart. coord. in units 2 pi/alat)
               b(1) = (  1.154701 -0.408248  0.000000 )  
               b(2) = (  0.000000  1.224745  0.000000 )  
               b(3) = ( -0.577350 -0.408248  1.000000 )  


     PseudoPot. # 1 for F  read from file:
     /scratch/lllang/LiF/pseudos/F.pbe-n-kjpaw_psl.1.0.0.UPF
     MD5 check sum: 66d718ea72839a4268ab2a9540e8cdd4
     Pseudo is Projector augmented-wave + core cor, Zval =  7.0
     Generated using "atomic" code by A. Dal Corso v.6.3
     Shape of augmentation charge: PSQ
     Using radial grid of 1105 points,  4 beta functions with: 
                l(1) =   0
                l(2) =   0
                l(3) =   1
                l(4) =   1
     Q(r) pseudized with 0 coefficients 


     PseudoPot. # 2 for Li read from file:
     /scratch/lllang/LiF/pseudos/Li.pbe-s-kjpaw_psl.1.0.0.UPF
     MD5 check sum: 3974953fb0fea6c4f83fb01d64ffc134
     Pseudo is Projector augmented-wave, Zval =  3.0
     Generated using "atomic" code by A. Dal Corso v.6.3
     Shape of augmentation charge: PSQ
     Using radial grid of 1017 points,  4 beta functions with: 
                l(1) =   0
                l(2) =   0
                l(3) =   1
                l(4) =   1
     Q(r) pseudized with 0 coefficients 


     atomic species   valence    mass     pseudopotential
        F              7.00    18.99840     F ( 1.00)
        Li             3.00     6.94100     Li( 1.00)

     Starting magnetic structure 
     atomic species   magnetization
        F            0.700
        Li           0.000

     No symmetry found


                                    s                        frac. trans.

      isym =  1     identity                                     

 cryst.   s( 1) = (     1          0          0      )
                  (     0          1          0      )
                  (     0          0          1      )

 cart.    s( 1) = (  1.0000000 -0.0000000  0.0000000 )
                  (  0.0000000  1.0000000  0.0000000 )
                  ( -0.0000000 -0.0000000  1.0000000 )


   Cartesian axes

     site n.     atom                  positions (alat units)
         1           Li  tau(   1) = (   0.0000000   0.0000000   0.0000000  )
         2           F   tau(   2) = (   0.5773503   0.4082483   1.0000000  )

   Crystallographic axes

     site n.     atom                  positions (cryst. coord.)
         1           Li  tau(   1) = (  0.0000000  0.0000000  0.0000000  )
         2           F   tau(   2) = (  0.5000000  0.5000000  0.5000000  )

     number of k points=  1688  Marzari-Vanderbilt smearing, width (Ry)=  0.0050
                       cart. coord. in units 2pi/alat
        k(    1) = (   0.0000000   0.0000000   0.0000000), wk =   0.0002963
        k(    2) = (  -0.0384900  -0.0272166   0.0666667), wk =   0.0005926
        k(    3) = (  -0.0769800  -0.0544331   0.1333333), wk =   0.0005926
        k(    4) = (  -0.1154701  -0.0816497   0.2000000), wk =   0.0005926
        k(    5) = (  -0.1539601  -0.1088662   0.2666667), wk =   0.0005926
        k(    6) = (  -0.1924501  -0.1360828   0.3333333), wk =   0.0005926
        k(    7) = (  -0.2309401  -0.1632993   0.4000000), wk =   0.0005926
        k(    8) = (  -0.2694301  -0.1905159   0.4666667), wk =   0.0005926
        k(    9) = (   0.0000000   0.0816497   0.0000000), wk =   0.0005926
        k(   10) = (  -0.0384900   0.0544331   0.0666667), wk =   0.0005926
        k(   11) = (  -0.0769800   0.0272166   0.1333333), wk =   0.0005926
        k(   12) = (  -0.1154701  -0.0000000   0.2000000), wk =   0.0005926
        k(   13) = (  -0.1539601  -0.0272166   0.2666667), wk =   0.0005926
        k(   14) = (  -0.1924501  -0.0544331   0.3333333), wk =   0.0005926
        k(   15) = (  -0.2309401  -0.0816497   0.4000000), wk =   0.0005926
        k(   16) = (  -0.2694301  -0.1088662   0.4666667), wk =   0.0005926
        k(   17) = (   0.2694301   0.2721655  -0.4666667), wk =   0.0005926
        k(   18) = (   0.2309401   0.2449490  -0.4000000), wk =   0.0005926
        k(   19) = (   0.1924501   0.2177324  -0.3333333), wk =   0.0005926
        k(   20) = (   0.1539601   0.1905159  -0.2666667), wk =   0.0005926
        k(   21) = (   0.1154701   0.1632993  -0.2000000), wk =   0.0005926
        k(   22) = (   0.0769800   0.1360828  -0.1333333), wk =   0.0005926
        k(   23) = (   0.0384900   0.1088662  -0.0666667), wk =   0.0005926
        k(   24) = (   0.0000000   0.1632993   0.0000000), wk =   0.0005926
        k(   25) = (  -0.0384900   0.1360828   0.0666667), wk =   0.0005926
        k(   26) = (  -0.0769800   0.1088662   0.1333333), wk =   0.0005926
        k(   27) = (  -0.1154701   0.0816497   0.2000000), wk =   0.0005926
        k(   28) = (  -0.1539601   0.0544331   0.2666667), wk =   0.0005926
        k(   29) = (  -0.1924501   0.0272166   0.3333333), wk =   0.0005926
        k(   30) = (  -0.2309401  -0.0000000   0.4000000), wk =   0.0005926
        k(   31) = (  -0.2694301  -0.0272166   0.4666667), wk =   0.0005926
        k(   32) = (   0.2694301   0.3538152  -0.4666667), wk =   0.0005926
        k(   33) = (   0.2309401   0.3265986  -0.4000000), wk =   0.0005926
        k(   34) = (   0.1924501   0.2993821  -0.3333333), wk =   0.0005926
        k(   35) = (   0.1539601   0.2721655  -0.2666667), wk =   0.0005926
        k(   36) = (   0.1154701   0.2449490  -0.2000000), wk =   0.0005926
        k(   37) = (   0.0769800   0.2177324  -0.1333333), wk =   0.0005926
        k(   38) = (   0.0384900   0.1905159  -0.0666667), wk =   0.0005926
        k(   39) = (   0.0000000   0.2449490   0.0000000), wk =   0.0005926
        k(   40) = (  -0.0384900   0.2177324   0.0666667), wk =   0.0005926
        k(   41) = (  -0.0769800   0.1905159   0.1333333), wk =   0.0005926
        k(   42) = (  -0.1154701   0.1632993   0.2000000), wk =   0.0005926
        k(   43) = (  -0.1539601   0.1360828   0.2666667), wk =   0.0005926
        k(   44) = (  -0.1924501   0.1088662   0.3333333), wk =   0.0005926
        k(   45) = (  -0.2309401   0.0816497   0.4000000), wk =   0.0005926
        k(   46) = (  -0.2694301   0.0544331   0.4666667), wk =   0.0005926
        k(   47) = (   0.2694301   0.4354648  -0.4666667), wk =   0.0005926
        k(   48) = (   0.2309401   0.4082483  -0.4000000), wk =   0.0005926
        k(   49) = (   0.1924501   0.3810317  -0.3333333), wk =   0.0005926
        k(   50) = (   0.1539601   0.3538152  -0.2666667), wk =   0.0005926
        k(   51) = (   0.1154701   0.3265986  -0.2000000), wk =   0.0005926
        k(   52) = (   0.0769800   0.2993821  -0.1333333), wk =   0.0005926
        k(   53) = (   0.0384900   0.2721655  -0.0666667), wk =   0.0005926
        k(   54) = (   0.0000000   0.3265986   0.0000000), wk =   0.0005926
        k(   55) = (  -0.0384900   0.2993821   0.0666667), wk =   0.0005926
        k(   56) = (  -0.0769800   0.2721655   0.1333333), wk =   0.0005926
        k(   57) = (  -0.1154701   0.2449490   0.2000000), wk =   0.0005926
        k(   58) = (  -0.1539601   0.2177324   0.2666667), wk =   0.0005926
        k(   59) = (  -0.1924501   0.1905159   0.3333333), wk =   0.0005926
        k(   60) = (  -0.2309401   0.1632993   0.4000000), wk =   0.0005926
        k(   61) = (  -0.2694301   0.1360828   0.4666667), wk =   0.0005926
        k(   62) = (   0.2694301   0.5171145  -0.4666667), wk =   0.0005926
        k(   63) = (   0.2309401   0.4898979  -0.4000000), wk =   0.0005926
        k(   64) = (   0.1924501   0.4626814  -0.3333333), wk =   0.0005926
        k(   65) = (   0.1539601   0.4354648  -0.2666667), wk =   0.0005926
        k(   66) = (   0.1154701   0.4082483  -0.2000000), wk =   0.0005926
        k(   67) = (   0.0769800   0.3810317  -0.1333333), wk =   0.0005926
        k(   68) = (   0.0384900   0.3538152  -0.0666667), wk =   0.0005926
        k(   69) = (   0.0000000   0.4082483   0.0000000), wk =   0.0005926
        k(   70) = (  -0.0384900   0.3810317   0.0666667), wk =   0.0005926
        k(   71) = (  -0.0769800   0.3538152   0.1333333), wk =   0.0005926
        k(   72) = (  -0.1154701   0.3265986   0.2000000), wk =   0.0005926
        k(   73) = (  -0.1539601   0.2993821   0.2666667), wk =   0.0005926
        k(   74) = (  -0.1924501   0.2721655   0.3333333), wk =   0.0005926
        k(   75) = (  -0.2309401   0.2449490   0.4000000), wk =   0.0005926
        k(   76) = (  -0.2694301   0.2177324   0.4666667), wk =   0.0005926
        k(   77) = (   0.2694301   0.5987642  -0.4666667), wk =   0.0005926
        k(   78) = (   0.2309401   0.5715476  -0.4000000), wk =   0.0005926
        k(   79) = (   0.1924501   0.5443311  -0.3333333), wk =   0.0005926
        k(   80) = (   0.1539601   0.5171145  -0.2666667), wk =   0.0005926
        k(   81) = (   0.1154701   0.4898979  -0.2000000), wk =   0.0005926
        k(   82) = (   0.0769800   0.4626814  -0.1333333), wk =   0.0005926
        k(   83) = (   0.0384900   0.4354648  -0.0666667), wk =   0.0005926
        k(   84) = (   0.0000000   0.4898979   0.0000000), wk =   0.0005926
        k(   85) = (  -0.0384900   0.4626814   0.0666667), wk =   0.0005926
        k(   86) = (  -0.0769800   0.4354648   0.1333333), wk =   0.0005926
        k(   87) = (  -0.1154701   0.4082483   0.2000000), wk =   0.0005926
        k(   88) = (  -0.1539601   0.3810317   0.2666667), wk =   0.0005926
        k(   89) = (  -0.1924501   0.3538152   0.3333333), wk =   0.0005926
        k(   90) = (  -0.2309401   0.3265986   0.4000000), wk =   0.0005926
        k(   91) = (  -0.2694301   0.2993821   0.4666667), wk =   0.0005926
        k(   92) = (   0.2694301   0.6804138  -0.4666667), wk =   0.0005926
        k(   93) = (   0.2309401   0.6531973  -0.4000000), wk =   0.0005926
        k(   94) = (   0.1924501   0.6259807  -0.3333333), wk =   0.0005926
        k(   95) = (   0.1539601   0.5987642  -0.2666667), wk =   0.0005926
        k(   96) = (   0.1154701   0.5715476  -0.2000000), wk =   0.0005926
        k(   97) = (   0.0769800   0.5443311  -0.1333333), wk =   0.0005926
        k(   98) = (   0.0384900   0.5171145  -0.0666667), wk =   0.0005926
        k(   99) = (   0.0000000   0.5715476   0.0000000), wk =   0.0005926
        k(  100) = (  -0.0384900   0.5443311   0.0666667), wk =   0.0005926
        k(  101) = (  -0.0769800   0.5171145   0.1333333), wk =   0.0005926
        k(  102) = (  -0.1154701   0.4898979   0.2000000), wk =   0.0005926
        k(  103) = (  -0.1539601   0.4626814   0.2666667), wk =   0.0005926
        k(  104) = (  -0.1924501   0.4354648   0.3333333), wk =   0.0005926
        k(  105) = (  -0.2309401   0.4082483   0.4000000), wk =   0.0005926
        k(  106) = (  -0.2694301   0.3810317   0.4666667), wk =   0.0005926
        k(  107) = (   0.2694301   0.7620635  -0.4666667), wk =   0.0005926
        k(  108) = (   0.2309401   0.7348469  -0.4000000), wk =   0.0005926
        k(  109) = (   0.1924501   0.7076304  -0.3333333), wk =   0.0005926
        k(  110) = (   0.1539601   0.6804138  -0.2666667), wk =   0.0005926
        k(  111) = (   0.1154701   0.6531973  -0.2000000), wk =   0.0005926
        k(  112) = (   0.0769800   0.6259807  -0.1333333), wk =   0.0005926
        k(  113) = (   0.0384900   0.5987642  -0.0666667), wk =   0.0005926
        k(  114) = (   0.0769800  -0.0272166   0.0000000), wk =   0.0005926
        k(  115) = (   0.0384900  -0.0544331   0.0666667), wk =   0.0005926
        k(  116) = (  -0.0000000  -0.0816497   0.1333333), wk =   0.0005926
        k(  117) = (  -0.0384900  -0.1088662   0.2000000), wk =   0.0005926
        k(  118) = (  -0.0769800  -0.1360828   0.2666667), wk =   0.0005926
        k(  119) = (  -0.1154701  -0.1632993   0.3333333), wk =   0.0005926
        k(  120) = (  -0.1539601  -0.1905159   0.4000000), wk =   0.0005926
        k(  121) = (  -0.1924501  -0.2177324   0.4666667), wk =   0.0005926
        k(  122) = (   0.3464102   0.1632993  -0.4666667), wk =   0.0005926
        k(  123) = (   0.3079201   0.1360828  -0.4000000), wk =   0.0005926
        k(  124) = (   0.2694301   0.1088662  -0.3333333), wk =   0.0005926
        k(  125) = (   0.2309401   0.0816497  -0.2666667), wk =   0.0005926
        k(  126) = (   0.1924501   0.0544331  -0.2000000), wk =   0.0005926
        k(  127) = (   0.1539601   0.0272166  -0.1333333), wk =   0.0005926
        k(  128) = (   0.1154701  -0.0000000  -0.0666667), wk =   0.0005926
        k(  129) = (   0.0769800   0.0544331   0.0000000), wk =   0.0005926
        k(  130) = (   0.0384900   0.0272166   0.0666667), wk =   0.0005926
        k(  131) = (  -0.0000000  -0.0000000   0.1333333), wk =   0.0005926
        k(  132) = (  -0.0384900  -0.0272166   0.2000000), wk =   0.0005926
        k(  133) = (  -0.0769800  -0.0544331   0.2666667), wk =   0.0005926
        k(  134) = (  -0.1154701  -0.0816497   0.3333333), wk =   0.0005926
        k(  135) = (  -0.1539601  -0.1088662   0.4000000), wk =   0.0005926
        k(  136) = (  -0.1924501  -0.1360828   0.4666667), wk =   0.0005926
        k(  137) = (   0.3464102   0.2449490  -0.4666667), wk =   0.0005926
        k(  138) = (   0.3079201   0.2177324  -0.4000000), wk =   0.0005926
        k(  139) = (   0.2694301   0.1905159  -0.3333333), wk =   0.0005926
        k(  140) = (   0.2309401   0.1632993  -0.2666667), wk =   0.0005926
        k(  141) = (   0.1924501   0.1360828  -0.2000000), wk =   0.0005926
        k(  142) = (   0.1539601   0.1088662  -0.1333333), wk =   0.0005926
        k(  143) = (   0.1154701   0.0816497  -0.0666667), wk =   0.0005926
        k(  144) = (   0.0769800   0.1360828   0.0000000), wk =   0.0005926
        k(  145) = (   0.0384900   0.1088662   0.0666667), wk =   0.0005926
        k(  146) = (  -0.0000000   0.0816497   0.1333333), wk =   0.0005926
        k(  147) = (  -0.0384900   0.0544331   0.2000000), wk =   0.0005926
        k(  148) = (  -0.0769800   0.0272166   0.2666667), wk =   0.0005926
        k(  149) = (  -0.1154701  -0.0000000   0.3333333), wk =   0.0005926
        k(  150) = (  -0.1539601  -0.0272166   0.4000000), wk =   0.0005926
        k(  151) = (  -0.1924501  -0.0544331   0.4666667), wk =   0.0005926
        k(  152) = (   0.3464102   0.3265986  -0.4666667), wk =   0.0005926
        k(  153) = (   0.3079201   0.2993821  -0.4000000), wk =   0.0005926
        k(  154) = (   0.2694301   0.2721655  -0.3333333), wk =   0.0005926
        k(  155) = (   0.2309401   0.2449490  -0.2666667), wk =   0.0005926
        k(  156) = (   0.1924501   0.2177324  -0.2000000), wk =   0.0005926
        k(  157) = (   0.1539601   0.1905159  -0.1333333), wk =   0.0005926
        k(  158) = (   0.1154701   0.1632993  -0.0666667), wk =   0.0005926
        k(  159) = (   0.0769800   0.2177324   0.0000000), wk =   0.0005926
        k(  160) = (   0.0384900   0.1905159   0.0666667), wk =   0.0005926
        k(  161) = (  -0.0000000   0.1632993   0.1333333), wk =   0.0005926
        k(  162) = (  -0.0384900   0.1360828   0.2000000), wk =   0.0005926
        k(  163) = (  -0.0769800   0.1088662   0.2666667), wk =   0.0005926
        k(  164) = (  -0.1154701   0.0816497   0.3333333), wk =   0.0005926
        k(  165) = (  -0.1539601   0.0544331   0.4000000), wk =   0.0005926
        k(  166) = (  -0.1924501   0.0272166   0.4666667), wk =   0.0005926
        k(  167) = (   0.3464102   0.4082483  -0.4666667), wk =   0.0005926
        k(  168) = (   0.3079201   0.3810317  -0.4000000), wk =   0.0005926
        k(  169) = (   0.2694301   0.3538152  -0.3333333), wk =   0.0005926
        k(  170) = (   0.2309401   0.3265986  -0.2666667), wk =   0.0005926
        k(  171) = (   0.1924501   0.2993821  -0.2000000), wk =   0.0005926
        k(  172) = (   0.1539601   0.2721655  -0.1333333), wk =   0.0005926
        k(  173) = (   0.1154701   0.2449490  -0.0666667), wk =   0.0005926
        k(  174) = (   0.0769800   0.2993821   0.0000000), wk =   0.0005926
        k(  175) = (   0.0384900   0.2721655   0.0666667), wk =   0.0005926
        k(  176) = (  -0.0000000   0.2449490   0.1333333), wk =   0.0005926
        k(  177) = (  -0.0384900   0.2177324   0.2000000), wk =   0.0005926
        k(  178) = (  -0.0769800   0.1905159   0.2666667), wk =   0.0005926
        k(  179) = (  -0.1154701   0.1632993   0.3333333), wk =   0.0005926
        k(  180) = (  -0.1539601   0.1360828   0.4000000), wk =   0.0005926
        k(  181) = (  -0.1924501   0.1088662   0.4666667), wk =   0.0005926
        k(  182) = (   0.3464102   0.4898979  -0.4666667), wk =   0.0005926
        k(  183) = (   0.3079201   0.4626814  -0.4000000), wk =   0.0005926
        k(  184) = (   0.2694301   0.4354648  -0.3333333), wk =   0.0005926
        k(  185) = (   0.2309401   0.4082483  -0.2666667), wk =   0.0005926
        k(  186) = (   0.1924501   0.3810317  -0.2000000), wk =   0.0005926
        k(  187) = (   0.1539601   0.3538152  -0.1333333), wk =   0.0005926
        k(  188) = (   0.1154701   0.3265986  -0.0666667), wk =   0.0005926
        k(  189) = (   0.0769800   0.3810317   0.0000000), wk =   0.0005926
        k(  190) = (   0.0384900   0.3538152   0.0666667), wk =   0.0005926
        k(  191) = (  -0.0000000   0.3265986   0.1333333), wk =   0.0005926
        k(  192) = (  -0.0384900   0.2993821   0.2000000), wk =   0.0005926
        k(  193) = (  -0.0769800   0.2721655   0.2666667), wk =   0.0005926
        k(  194) = (  -0.1154701   0.2449490   0.3333333), wk =   0.0005926
        k(  195) = (  -0.1539601   0.2177324   0.4000000), wk =   0.0005926
        k(  196) = (  -0.1924501   0.1905159   0.4666667), wk =   0.0005926
        k(  197) = (   0.3464102   0.5715476  -0.4666667), wk =   0.0005926
        k(  198) = (   0.3079201   0.5443311  -0.4000000), wk =   0.0005926
        k(  199) = (   0.2694301   0.5171145  -0.3333333), wk =   0.0005926
        k(  200) = (   0.2309401   0.4898979  -0.2666667), wk =   0.0005926
        k(  201) = (   0.1924501   0.4626814  -0.2000000), wk =   0.0005926
        k(  202) = (   0.1539601   0.4354648  -0.1333333), wk =   0.0005926
        k(  203) = (   0.1154701   0.4082483  -0.0666667), wk =   0.0005926
        k(  204) = (   0.0769800   0.4626814   0.0000000), wk =   0.0005926
        k(  205) = (   0.0384900   0.4354648   0.0666667), wk =   0.0005926
        k(  206) = (  -0.0000000   0.4082483   0.1333333), wk =   0.0005926
        k(  207) = (  -0.0384900   0.3810317   0.2000000), wk =   0.0005926
        k(  208) = (  -0.0769800   0.3538152   0.2666667), wk =   0.0005926
        k(  209) = (  -0.1154701   0.3265986   0.3333333), wk =   0.0005926
        k(  210) = (  -0.1539601   0.2993821   0.4000000), wk =   0.0005926
        k(  211) = (  -0.1924501   0.2721655   0.4666667), wk =   0.0005926
        k(  212) = (   0.3464102   0.6531973  -0.4666667), wk =   0.0005926
        k(  213) = (   0.3079201   0.6259807  -0.4000000), wk =   0.0005926
        k(  214) = (   0.2694301   0.5987642  -0.3333333), wk =   0.0005926
        k(  215) = (   0.2309401   0.5715476  -0.2666667), wk =   0.0005926
        k(  216) = (   0.1924501   0.5443311  -0.2000000), wk =   0.0005926
        k(  217) = (   0.1539601   0.5171145  -0.1333333), wk =   0.0005926
        k(  218) = (   0.1154701   0.4898979  -0.0666667), wk =   0.0005926
        k(  219) = (   0.0769800   0.5443311   0.0000000), wk =   0.0005926
        k(  220) = (   0.0384900   0.5171145   0.0666667), wk =   0.0005926
        k(  221) = (  -0.0000000   0.4898979   0.1333333), wk =   0.0005926
        k(  222) = (  -0.0384900   0.4626814   0.2000000), wk =   0.0005926
        k(  223) = (  -0.0769800   0.4354648   0.2666667), wk =   0.0005926
        k(  224) = (  -0.1154701   0.4082483   0.3333333), wk =   0.0005926
        k(  225) = (  -0.1539601   0.3810317   0.4000000), wk =   0.0005926
        k(  226) = (  -0.1924501   0.3538152   0.4666667), wk =   0.0005926
        k(  227) = (   0.3464102   0.7348469  -0.4666667), wk =   0.0005926
        k(  228) = (   0.3079201   0.7076304  -0.4000000), wk =   0.0005926
        k(  229) = (   0.2694301   0.6804138  -0.3333333), wk =   0.0005926
        k(  230) = (   0.2309401   0.6531973  -0.2666667), wk =   0.0005926
        k(  231) = (   0.1924501   0.6259807  -0.2000000), wk =   0.0005926
        k(  232) = (   0.1539601   0.5987642  -0.1333333), wk =   0.0005926
        k(  233) = (   0.1154701   0.5715476  -0.0666667), wk =   0.0005926
        k(  234) = (   0.0769800  -0.5987642   0.0000000), wk =   0.0005926
        k(  235) = (   0.0384900  -0.6259807   0.0666667), wk =   0.0005926
        k(  236) = (  -0.0000000  -0.6531973   0.1333333), wk =   0.0005926
        k(  237) = (  -0.0384900  -0.6804138   0.2000000), wk =   0.0005926
        k(  238) = (  -0.0769800  -0.7076304   0.2666667), wk =   0.0005926
        k(  239) = (  -0.1154701  -0.7348469   0.3333333), wk =   0.0005926
        k(  240) = (  -0.1539601  -0.7620635   0.4000000), wk =   0.0005926
        k(  241) = (  -0.1924501  -0.7892800   0.4666667), wk =   0.0005926
        k(  242) = (   0.3464102  -0.4082483  -0.4666667), wk =   0.0005926
        k(  243) = (   0.3079201  -0.4354648  -0.4000000), wk =   0.0005926
        k(  244) = (   0.2694301  -0.4626814  -0.3333333), wk =   0.0005926
        k(  245) = (   0.2309401  -0.4898979  -0.2666667), wk =   0.0005926
        k(  246) = (   0.1924501  -0.5171145  -0.2000000), wk =   0.0005926
        k(  247) = (   0.1539601  -0.5443311  -0.1333333), wk =   0.0005926
        k(  248) = (   0.1154701  -0.5715476  -0.0666667), wk =   0.0005926
        k(  249) = (   0.0769800  -0.5171145   0.0000000), wk =   0.0005926
        k(  250) = (   0.0384900  -0.5443311   0.0666667), wk =   0.0005926
        k(  251) = (  -0.0000000  -0.5715476   0.1333333), wk =   0.0005926
        k(  252) = (  -0.0384900  -0.5987642   0.2000000), wk =   0.0005926
        k(  253) = (  -0.0769800  -0.6259807   0.2666667), wk =   0.0005926
        k(  254) = (  -0.1154701  -0.6531973   0.3333333), wk =   0.0005926
        k(  255) = (  -0.1539601  -0.6804138   0.4000000), wk =   0.0005926
        k(  256) = (  -0.1924501  -0.7076304   0.4666667), wk =   0.0005926
        k(  257) = (   0.3464102  -0.3265986  -0.4666667), wk =   0.0005926
        k(  258) = (   0.3079201  -0.3538152  -0.4000000), wk =   0.0005926
        k(  259) = (   0.2694301  -0.3810317  -0.3333333), wk =   0.0005926
        k(  260) = (   0.2309401  -0.4082483  -0.2666667), wk =   0.0005926
        k(  261) = (   0.1924501  -0.4354648  -0.2000000), wk =   0.0005926
        k(  262) = (   0.1539601  -0.4626814  -0.1333333), wk =   0.0005926
        k(  263) = (   0.1154701  -0.4898979  -0.0666667), wk =   0.0005926
        k(  264) = (   0.0769800  -0.4354648   0.0000000), wk =   0.0005926
        k(  265) = (   0.0384900  -0.4626814   0.0666667), wk =   0.0005926
        k(  266) = (  -0.0000000  -0.4898979   0.1333333), wk =   0.0005926
        k(  267) = (  -0.0384900  -0.5171145   0.2000000), wk =   0.0005926
        k(  268) = (  -0.0769800  -0.5443311   0.2666667), wk =   0.0005926
        k(  269) = (  -0.1154701  -0.5715476   0.3333333), wk =   0.0005926
        k(  270) = (  -0.1539601  -0.5987642   0.4000000), wk =   0.0005926
        k(  271) = (  -0.1924501  -0.6259807   0.4666667), wk =   0.0005926
        k(  272) = (   0.3464102  -0.2449490  -0.4666667), wk =   0.0005926
        k(  273) = (   0.3079201  -0.2721655  -0.4000000), wk =   0.0005926
        k(  274) = (   0.2694301  -0.2993821  -0.3333333), wk =   0.0005926
        k(  275) = (   0.2309401  -0.3265986  -0.2666667), wk =   0.0005926
        k(  276) = (   0.1924501  -0.3538152  -0.2000000), wk =   0.0005926
        k(  277) = (   0.1539601  -0.3810317  -0.1333333), wk =   0.0005926
        k(  278) = (   0.1154701  -0.4082483  -0.0666667), wk =   0.0005926
        k(  279) = (   0.0769800  -0.3538152   0.0000000), wk =   0.0005926
        k(  280) = (   0.0384900  -0.3810317   0.0666667), wk =   0.0005926
        k(  281) = (  -0.0000000  -0.4082483   0.1333333), wk =   0.0005926
        k(  282) = (  -0.0384900  -0.4354648   0.2000000), wk =   0.0005926
        k(  283) = (  -0.0769800  -0.4626814   0.2666667), wk =   0.0005926
        k(  284) = (  -0.1154701  -0.4898979   0.3333333), wk =   0.0005926
        k(  285) = (  -0.1539601  -0.5171145   0.4000000), wk =   0.0005926
        k(  286) = (  -0.1924501  -0.5443311   0.4666667), wk =   0.0005926
        k(  287) = (   0.3464102  -0.1632993  -0.4666667), wk =   0.0005926
        k(  288) = (   0.3079201  -0.1905159  -0.4000000), wk =   0.0005926
        k(  289) = (   0.2694301  -0.2177324  -0.3333333), wk =   0.0005926
        k(  290) = (   0.2309401  -0.2449490  -0.2666667), wk =   0.0005926
        k(  291) = (   0.1924501  -0.2721655  -0.2000000), wk =   0.0005926
        k(  292) = (   0.1539601  -0.2993821  -0.1333333), wk =   0.0005926
        k(  293) = (   0.1154701  -0.3265986  -0.0666667), wk =   0.0005926
        k(  294) = (   0.0769800  -0.2721655   0.0000000), wk =   0.0005926
        k(  295) = (   0.0384900  -0.2993821   0.0666667), wk =   0.0005926
        k(  296) = (  -0.0000000  -0.3265986   0.1333333), wk =   0.0005926
        k(  297) = (  -0.0384900  -0.3538152   0.2000000), wk =   0.0005926
        k(  298) = (  -0.0769800  -0.3810317   0.2666667), wk =   0.0005926
        k(  299) = (  -0.1154701  -0.4082483   0.3333333), wk =   0.0005926
        k(  300) = (  -0.1539601  -0.4354648   0.4000000), wk =   0.0005926
        k(  301) = (  -0.1924501  -0.4626814   0.4666667), wk =   0.0005926
        k(  302) = (   0.3464102  -0.0816497  -0.4666667), wk =   0.0005926
        k(  303) = (   0.3079201  -0.1088662  -0.4000000), wk =   0.0005926
        k(  304) = (   0.2694301  -0.1360828  -0.3333333), wk =   0.0005926
        k(  305) = (   0.2309401  -0.1632993  -0.2666667), wk =   0.0005926
        k(  306) = (   0.1924501  -0.1905159  -0.2000000), wk =   0.0005926
        k(  307) = (   0.1539601  -0.2177324  -0.1333333), wk =   0.0005926
        k(  308) = (   0.1154701  -0.2449490  -0.0666667), wk =   0.0005926
        k(  309) = (   0.0769800  -0.1905159   0.0000000), wk =   0.0005926
        k(  310) = (   0.0384900  -0.2177324   0.0666667), wk =   0.0005926
        k(  311) = (  -0.0000000  -0.2449490   0.1333333), wk =   0.0005926
        k(  312) = (  -0.0384900  -0.2721655   0.2000000), wk =   0.0005926
        k(  313) = (  -0.0769800  -0.2993821   0.2666667), wk =   0.0005926
        k(  314) = (  -0.1154701  -0.3265986   0.3333333), wk =   0.0005926
        k(  315) = (  -0.1539601  -0.3538152   0.4000000), wk =   0.0005926
        k(  316) = (  -0.1924501  -0.3810317   0.4666667), wk =   0.0005926
        k(  317) = (   0.3464102   0.0000000  -0.4666667), wk =   0.0005926
        k(  318) = (   0.3079201  -0.0272166  -0.4000000), wk =   0.0005926
        k(  319) = (   0.2694301  -0.0544331  -0.3333333), wk =   0.0005926
        k(  320) = (   0.2309401  -0.0816497  -0.2666667), wk =   0.0005926
        k(  321) = (   0.1924501  -0.1088662  -0.2000000), wk =   0.0005926
        k(  322) = (   0.1539601  -0.1360828  -0.1333333), wk =   0.0005926
        k(  323) = (   0.1154701  -0.1632993  -0.0666667), wk =   0.0005926
        k(  324) = (   0.0769800  -0.1088662   0.0000000), wk =   0.0005926
        k(  325) = (   0.0384900  -0.1360828   0.0666667), wk =   0.0005926
        k(  326) = (  -0.0000000  -0.1632993   0.1333333), wk =   0.0005926
        k(  327) = (  -0.0384900  -0.1905159   0.2000000), wk =   0.0005926
        k(  328) = (  -0.0769800  -0.2177324   0.2666667), wk =   0.0005926
        k(  329) = (  -0.1154701  -0.2449490   0.3333333), wk =   0.0005926
        k(  330) = (  -0.1539601  -0.2721655   0.4000000), wk =   0.0005926
        k(  331) = (  -0.1924501  -0.2993821   0.4666667), wk =   0.0005926
        k(  332) = (   0.3464102   0.0816497  -0.4666667), wk =   0.0005926
        k(  333) = (   0.3079201   0.0544331  -0.4000000), wk =   0.0005926
        k(  334) = (   0.2694301   0.0272166  -0.3333333), wk =   0.0005926
        k(  335) = (   0.2309401   0.0000000  -0.2666667), wk =   0.0005926
        k(  336) = (   0.1924501  -0.0272166  -0.2000000), wk =   0.0005926
        k(  337) = (   0.1539601  -0.0544331  -0.1333333), wk =   0.0005926
        k(  338) = (   0.1154701  -0.0816497  -0.0666667), wk =   0.0005926
        k(  339) = (   0.1539601  -0.0544331   0.0000000), wk =   0.0005926
        k(  340) = (   0.1154701  -0.0816497   0.0666667), wk =   0.0005926
        k(  341) = (   0.0769800  -0.1088662   0.1333333), wk =   0.0005926
        k(  342) = (   0.0384900  -0.1360828   0.2000000), wk =   0.0005926
        k(  343) = (  -0.0000000  -0.1632993   0.2666667), wk =   0.0005926
        k(  344) = (  -0.0384900  -0.1905159   0.3333333), wk =   0.0005926
        k(  345) = (  -0.0769800  -0.2177324   0.4000000), wk =   0.0005926
        k(  346) = (  -0.1154701  -0.2449490   0.4666667), wk =   0.0005926
        k(  347) = (   0.4233902   0.1360828  -0.4666667), wk =   0.0005926
        k(  348) = (   0.3849002   0.1088662  -0.4000000), wk =   0.0005926
        k(  349) = (   0.3464102   0.0816497  -0.3333333), wk =   0.0005926
        k(  350) = (   0.3079201   0.0544331  -0.2666667), wk =   0.0005926
        k(  351) = (   0.2694301   0.0272166  -0.2000000), wk =   0.0005926
        k(  352) = (   0.2309401  -0.0000000  -0.1333333), wk =   0.0005926
        k(  353) = (   0.1924501  -0.0272166  -0.0666667), wk =   0.0005926
        k(  354) = (   0.1539601   0.0272166   0.0000000), wk =   0.0005926
        k(  355) = (   0.1154701  -0.0000000   0.0666667), wk =   0.0005926
        k(  356) = (   0.0769800  -0.0272166   0.1333333), wk =   0.0005926
        k(  357) = (   0.0384900  -0.0544331   0.2000000), wk =   0.0005926
        k(  358) = (  -0.0000000  -0.0816497   0.2666667), wk =   0.0005926
        k(  359) = (  -0.0384900  -0.1088662   0.3333333), wk =   0.0005926
        k(  360) = (  -0.0769800  -0.1360828   0.4000000), wk =   0.0005926
        k(  361) = (  -0.1154701  -0.1632993   0.4666667), wk =   0.0005926
        k(  362) = (   0.4233902   0.2177324  -0.4666667), wk =   0.0005926
        k(  363) = (   0.3849002   0.1905159  -0.4000000), wk =   0.0005926
        k(  364) = (   0.3464102   0.1632993  -0.3333333), wk =   0.0005926
        k(  365) = (   0.3079201   0.1360828  -0.2666667), wk =   0.0005926
        k(  366) = (   0.2694301   0.1088662  -0.2000000), wk =   0.0005926
        k(  367) = (   0.2309401   0.0816497  -0.1333333), wk =   0.0005926
        k(  368) = (   0.1924501   0.0544331  -0.0666667), wk =   0.0005926
        k(  369) = (   0.1539601   0.1088662   0.0000000), wk =   0.0005926
        k(  370) = (   0.1154701   0.0816497   0.0666667), wk =   0.0005926
        k(  371) = (   0.0769800   0.0544331   0.1333333), wk =   0.0005926
        k(  372) = (   0.0384900   0.0272166   0.2000000), wk =   0.0005926
        k(  373) = (  -0.0000000  -0.0000000   0.2666667), wk =   0.0005926
        k(  374) = (  -0.0384900  -0.0272166   0.3333333), wk =   0.0005926
        k(  375) = (  -0.0769800  -0.0544331   0.4000000), wk =   0.0005926
        k(  376) = (  -0.1154701  -0.0816497   0.4666667), wk =   0.0005926
        k(  377) = (   0.4233902   0.2993821  -0.4666667), wk =   0.0005926
        k(  378) = (   0.3849002   0.2721655  -0.4000000), wk =   0.0005926
        k(  379) = (   0.3464102   0.2449490  -0.3333333), wk =   0.0005926
        k(  380) = (   0.3079201   0.2177324  -0.2666667), wk =   0.0005926
        k(  381) = (   0.2694301   0.1905159  -0.2000000), wk =   0.0005926
        k(  382) = (   0.2309401   0.1632993  -0.1333333), wk =   0.0005926
        k(  383) = (   0.1924501   0.1360828  -0.0666667), wk =   0.0005926
        k(  384) = (   0.1539601   0.1905159   0.0000000), wk =   0.0005926
        k(  385) = (   0.1154701   0.1632993   0.0666667), wk =   0.0005926
        k(  386) = (   0.0769800   0.1360828   0.1333333), wk =   0.0005926
        k(  387) = (   0.0384900   0.1088662   0.2000000), wk =   0.0005926
        k(  388) = (  -0.0000000   0.0816497   0.2666667), wk =   0.0005926
        k(  389) = (  -0.0384900   0.0544331   0.3333333), wk =   0.0005926
        k(  390) = (  -0.0769800   0.0272166   0.4000000), wk =   0.0005926
        k(  391) = (  -0.1154701  -0.0000000   0.4666667), wk =   0.0005926
        k(  392) = (   0.4233902   0.3810317  -0.4666667), wk =   0.0005926
        k(  393) = (   0.3849002   0.3538152  -0.4000000), wk =   0.0005926
        k(  394) = (   0.3464102   0.3265986  -0.3333333), wk =   0.0005926
        k(  395) = (   0.3079201   0.2993821  -0.2666667), wk =   0.0005926
        k(  396) = (   0.2694301   0.2721655  -0.2000000), wk =   0.0005926
        k(  397) = (   0.2309401   0.2449490  -0.1333333), wk =   0.0005926
        k(  398) = (   0.1924501   0.2177324  -0.0666667), wk =   0.0005926
        k(  399) = (   0.1539601   0.2721655   0.0000000), wk =   0.0005926
        k(  400) = (   0.1154701   0.2449490   0.0666667), wk =   0.0005926
        k(  401) = (   0.0769800   0.2177324   0.1333333), wk =   0.0005926
        k(  402) = (   0.0384900   0.1905159   0.2000000), wk =   0.0005926
        k(  403) = (  -0.0000000   0.1632993   0.2666667), wk =   0.0005926
        k(  404) = (  -0.0384900   0.1360828   0.3333333), wk =   0.0005926
        k(  405) = (  -0.0769800   0.1088662   0.4000000), wk =   0.0005926
        k(  406) = (  -0.1154701   0.0816497   0.4666667), wk =   0.0005926
        k(  407) = (   0.4233902   0.4626814  -0.4666667), wk =   0.0005926
        k(  408) = (   0.3849002   0.4354648  -0.4000000), wk =   0.0005926
        k(  409) = (   0.3464102   0.4082483  -0.3333333), wk =   0.0005926
        k(  410) = (   0.3079201   0.3810317  -0.2666667), wk =   0.0005926
        k(  411) = (   0.2694301   0.3538152  -0.2000000), wk =   0.0005926
        k(  412) = (   0.2309401   0.3265986  -0.1333333), wk =   0.0005926
        k(  413) = (   0.1924501   0.2993821  -0.0666667), wk =   0.0005926
        k(  414) = (   0.1539601   0.3538152   0.0000000), wk =   0.0005926
        k(  415) = (   0.1154701   0.3265986   0.0666667), wk =   0.0005926
        k(  416) = (   0.0769800   0.2993821   0.1333333), wk =   0.0005926
        k(  417) = (   0.0384900   0.2721655   0.2000000), wk =   0.0005926
        k(  418) = (  -0.0000000   0.2449490   0.2666667), wk =   0.0005926
        k(  419) = (  -0.0384900   0.2177324   0.3333333), wk =   0.0005926
        k(  420) = (  -0.0769800   0.1905159   0.4000000), wk =   0.0005926
        k(  421) = (  -0.1154701   0.1632993   0.4666667), wk =   0.0005926
        k(  422) = (   0.4233902   0.5443311  -0.4666667), wk =   0.0005926
        k(  423) = (   0.3849002   0.5171145  -0.4000000), wk =   0.0005926
        k(  424) = (   0.3464102   0.4898979  -0.3333333), wk =   0.0005926
        k(  425) = (   0.3079201   0.4626814  -0.2666667), wk =   0.0005926
        k(  426) = (   0.2694301   0.4354648  -0.2000000), wk =   0.0005926
        k(  427) = (   0.2309401   0.4082483  -0.1333333), wk =   0.0005926
        k(  428) = (   0.1924501   0.3810317  -0.0666667), wk =   0.0005926
        k(  429) = (   0.1539601   0.4354648   0.0000000), wk =   0.0005926
        k(  430) = (   0.1154701   0.4082483   0.0666667), wk =   0.0005926
        k(  431) = (   0.0769800   0.3810317   0.1333333), wk =   0.0005926
        k(  432) = (   0.0384900   0.3538152   0.2000000), wk =   0.0005926
        k(  433) = (  -0.0000000   0.3265986   0.2666667), wk =   0.0005926
        k(  434) = (  -0.0384900   0.2993821   0.3333333), wk =   0.0005926
        k(  435) = (  -0.0769800   0.2721655   0.4000000), wk =   0.0005926
        k(  436) = (  -0.1154701   0.2449490   0.4666667), wk =   0.0005926
        k(  437) = (   0.4233902   0.6259807  -0.4666667), wk =   0.0005926
        k(  438) = (   0.3849002   0.5987642  -0.4000000), wk =   0.0005926
        k(  439) = (   0.3464102   0.5715476  -0.3333333), wk =   0.0005926
        k(  440) = (   0.3079201   0.5443311  -0.2666667), wk =   0.0005926
        k(  441) = (   0.2694301   0.5171145  -0.2000000), wk =   0.0005926
        k(  442) = (   0.2309401   0.4898979  -0.1333333), wk =   0.0005926
        k(  443) = (   0.1924501   0.4626814  -0.0666667), wk =   0.0005926
        k(  444) = (   0.1539601   0.5171145   0.0000000), wk =   0.0005926
        k(  445) = (   0.1154701   0.4898979   0.0666667), wk =   0.0005926
        k(  446) = (   0.0769800   0.4626814   0.1333333), wk =   0.0005926
        k(  447) = (   0.0384900   0.4354648   0.2000000), wk =   0.0005926
        k(  448) = (  -0.0000000   0.4082483   0.2666667), wk =   0.0005926
        k(  449) = (  -0.0384900   0.3810317   0.3333333), wk =   0.0005926
        k(  450) = (  -0.0769800   0.3538152   0.4000000), wk =   0.0005926
        k(  451) = (  -0.1154701   0.3265986   0.4666667), wk =   0.0005926
        k(  452) = (   0.4233902   0.7076304  -0.4666667), wk =   0.0005926
        k(  453) = (   0.3849002   0.6804138  -0.4000000), wk =   0.0005926
        k(  454) = (   0.3464102   0.6531973  -0.3333333), wk =   0.0005926
        k(  455) = (   0.3079201   0.6259807  -0.2666667), wk =   0.0005926
        k(  456) = (   0.2694301   0.5987642  -0.2000000), wk =   0.0005926
        k(  457) = (   0.2309401   0.5715476  -0.1333333), wk =   0.0005926
        k(  458) = (   0.1924501   0.5443311  -0.0666667), wk =   0.0005926
        k(  459) = (   0.1539601  -0.6259807   0.0000000), wk =   0.0005926
        k(  460) = (   0.1154701  -0.6531973   0.0666667), wk =   0.0005926
        k(  461) = (   0.0769800  -0.6804138   0.1333333), wk =   0.0005926
        k(  462) = (   0.0384900  -0.7076304   0.2000000), wk =   0.0005926
        k(  463) = (  -0.0000000  -0.7348469   0.2666667), wk =   0.0005926
        k(  464) = (  -0.0384900  -0.7620635   0.3333333), wk =   0.0005926
        k(  465) = (  -0.0769800  -0.7892800   0.4000000), wk =   0.0005926
        k(  466) = (  -0.1154701  -0.8164966   0.4666667), wk =   0.0005926
        k(  467) = (   0.4233902  -0.4354648  -0.4666667), wk =   0.0005926
        k(  468) = (   0.3849002  -0.4626814  -0.4000000), wk =   0.0005926
        k(  469) = (   0.3464102  -0.4898979  -0.3333333), wk =   0.0005926
        k(  470) = (   0.3079201  -0.5171145  -0.2666667), wk =   0.0005926
        k(  471) = (   0.2694301  -0.5443311  -0.2000000), wk =   0.0005926
        k(  472) = (   0.2309401  -0.5715476  -0.1333333), wk =   0.0005926
        k(  473) = (   0.1924501  -0.5987642  -0.0666667), wk =   0.0005926
        k(  474) = (   0.1539601  -0.5443311   0.0000000), wk =   0.0005926
        k(  475) = (   0.1154701  -0.5715476   0.0666667), wk =   0.0005926
        k(  476) = (   0.0769800  -0.5987642   0.1333333), wk =   0.0005926
        k(  477) = (   0.0384900  -0.6259807   0.2000000), wk =   0.0005926
        k(  478) = (  -0.0000000  -0.6531973   0.2666667), wk =   0.0005926
        k(  479) = (  -0.0384900  -0.6804138   0.3333333), wk =   0.0005926
        k(  480) = (  -0.0769800  -0.7076304   0.4000000), wk =   0.0005926
        k(  481) = (  -0.1154701  -0.7348469   0.4666667), wk =   0.0005926
        k(  482) = (   0.4233902  -0.3538152  -0.4666667), wk =   0.0005926
        k(  483) = (   0.3849002  -0.3810317  -0.4000000), wk =   0.0005926
        k(  484) = (   0.3464102  -0.4082483  -0.3333333), wk =   0.0005926
        k(  485) = (   0.3079201  -0.4354648  -0.2666667), wk =   0.0005926
        k(  486) = (   0.2694301  -0.4626814  -0.2000000), wk =   0.0005926
        k(  487) = (   0.2309401  -0.4898979  -0.1333333), wk =   0.0005926
        k(  488) = (   0.1924501  -0.5171145  -0.0666667), wk =   0.0005926
        k(  489) = (   0.1539601  -0.4626814   0.0000000), wk =   0.0005926
        k(  490) = (   0.1154701  -0.4898979   0.0666667), wk =   0.0005926
        k(  491) = (   0.0769800  -0.5171145   0.1333333), wk =   0.0005926
        k(  492) = (   0.0384900  -0.5443311   0.2000000), wk =   0.0005926
        k(  493) = (  -0.0000000  -0.5715476   0.2666667), wk =   0.0005926
        k(  494) = (  -0.0384900  -0.5987642   0.3333333), wk =   0.0005926
        k(  495) = (  -0.0769800  -0.6259807   0.4000000), wk =   0.0005926
        k(  496) = (  -0.1154701  -0.6531973   0.4666667), wk =   0.0005926
        k(  497) = (   0.4233902  -0.2721655  -0.4666667), wk =   0.0005926
        k(  498) = (   0.3849002  -0.2993821  -0.4000000), wk =   0.0005926
        k(  499) = (   0.3464102  -0.3265986  -0.3333333), wk =   0.0005926
        k(  500) = (   0.3079201  -0.3538152  -0.2666667), wk =   0.0005926
        k(  501) = (   0.2694301  -0.3810317  -0.2000000), wk =   0.0005926
        k(  502) = (   0.2309401  -0.4082483  -0.1333333), wk =   0.0005926
        k(  503) = (   0.1924501  -0.4354648  -0.0666667), wk =   0.0005926
        k(  504) = (   0.1539601  -0.3810317   0.0000000), wk =   0.0005926
        k(  505) = (   0.1154701  -0.4082483   0.0666667), wk =   0.0005926
        k(  506) = (   0.0769800  -0.4354648   0.1333333), wk =   0.0005926
        k(  507) = (   0.0384900  -0.4626814   0.2000000), wk =   0.0005926
        k(  508) = (  -0.0000000  -0.4898979   0.2666667), wk =   0.0005926
        k(  509) = (  -0.0384900  -0.5171145   0.3333333), wk =   0.0005926
        k(  510) = (  -0.0769800  -0.5443311   0.4000000), wk =   0.0005926
        k(  511) = (  -0.1154701  -0.5715476   0.4666667), wk =   0.0005926
        k(  512) = (   0.4233902  -0.1905159  -0.4666667), wk =   0.0005926
        k(  513) = (   0.3849002  -0.2177324  -0.4000000), wk =   0.0005926
        k(  514) = (   0.3464102  -0.2449490  -0.3333333), wk =   0.0005926
        k(  515) = (   0.3079201  -0.2721655  -0.2666667), wk =   0.0005926
        k(  516) = (   0.2694301  -0.2993821  -0.2000000), wk =   0.0005926
        k(  517) = (   0.2309401  -0.3265986  -0.1333333), wk =   0.0005926
        k(  518) = (   0.1924501  -0.3538152  -0.0666667), wk =   0.0005926
        k(  519) = (   0.1539601  -0.2993821   0.0000000), wk =   0.0005926
        k(  520) = (   0.1154701  -0.3265986   0.0666667), wk =   0.0005926
        k(  521) = (   0.0769800  -0.3538152   0.1333333), wk =   0.0005926
        k(  522) = (   0.0384900  -0.3810317   0.2000000), wk =   0.0005926
        k(  523) = (  -0.0000000  -0.4082483   0.2666667), wk =   0.0005926
        k(  524) = (  -0.0384900  -0.4354648   0.3333333), wk =   0.0005926
        k(  525) = (  -0.0769800  -0.4626814   0.4000000), wk =   0.0005926
        k(  526) = (  -0.1154701  -0.4898979   0.4666667), wk =   0.0005926
        k(  527) = (   0.4233902  -0.1088662  -0.4666667), wk =   0.0005926
        k(  528) = (   0.3849002  -0.1360828  -0.4000000), wk =   0.0005926
        k(  529) = (   0.3464102  -0.1632993  -0.3333333), wk =   0.0005926
        k(  530) = (   0.3079201  -0.1905159  -0.2666667), wk =   0.0005926
        k(  531) = (   0.2694301  -0.2177324  -0.2000000), wk =   0.0005926
        k(  532) = (   0.2309401  -0.2449490  -0.1333333), wk =   0.0005926
        k(  533) = (   0.1924501  -0.2721655  -0.0666667), wk =   0.0005926
        k(  534) = (   0.1539601  -0.2177324   0.0000000), wk =   0.0005926
        k(  535) = (   0.1154701  -0.2449490   0.0666667), wk =   0.0005926
        k(  536) = (   0.0769800  -0.2721655   0.1333333), wk =   0.0005926
        k(  537) = (   0.0384900  -0.2993821   0.2000000), wk =   0.0005926
        k(  538) = (  -0.0000000  -0.3265986   0.2666667), wk =   0.0005926
        k(  539) = (  -0.0384900  -0.3538152   0.3333333), wk =   0.0005926
        k(  540) = (  -0.0769800  -0.3810317   0.4000000), wk =   0.0005926
        k(  541) = (  -0.1154701  -0.4082483   0.4666667), wk =   0.0005926
        k(  542) = (   0.4233902  -0.0272166  -0.4666667), wk =   0.0005926
        k(  543) = (   0.3849002  -0.0544331  -0.4000000), wk =   0.0005926
        k(  544) = (   0.3464102  -0.0816497  -0.3333333), wk =   0.0005926
        k(  545) = (   0.3079201  -0.1088662  -0.2666667), wk =   0.0005926
        k(  546) = (   0.2694301  -0.1360828  -0.2000000), wk =   0.0005926
        k(  547) = (   0.2309401  -0.1632993  -0.1333333), wk =   0.0005926
        k(  548) = (   0.1924501  -0.1905159  -0.0666667), wk =   0.0005926
        k(  549) = (   0.1539601  -0.1360828   0.0000000), wk =   0.0005926
        k(  550) = (   0.1154701  -0.1632993   0.0666667), wk =   0.0005926
        k(  551) = (   0.0769800  -0.1905159   0.1333333), wk =   0.0005926
        k(  552) = (   0.0384900  -0.2177324   0.2000000), wk =   0.0005926
        k(  553) = (  -0.0000000  -0.2449490   0.2666667), wk =   0.0005926
        k(  554) = (  -0.0384900  -0.2721655   0.3333333), wk =   0.0005926
        k(  555) = (  -0.0769800  -0.2993821   0.4000000), wk =   0.0005926
        k(  556) = (  -0.1154701  -0.3265986   0.4666667), wk =   0.0005926
        k(  557) = (   0.4233902   0.0544331  -0.4666667), wk =   0.0005926
        k(  558) = (   0.3849002   0.0272166  -0.4000000), wk =   0.0005926
        k(  559) = (   0.3464102   0.0000000  -0.3333333), wk =   0.0005926
        k(  560) = (   0.3079201  -0.0272166  -0.2666667), wk =   0.0005926
        k(  561) = (   0.2694301  -0.0544331  -0.2000000), wk =   0.0005926
        k(  562) = (   0.2309401  -0.0816497  -0.1333333), wk =   0.0005926
        k(  563) = (   0.1924501  -0.1088662  -0.0666667), wk =   0.0005926
        k(  564) = (   0.2309401  -0.0816497   0.0000000), wk =   0.0005926
        k(  565) = (   0.1924501  -0.1088662   0.0666667), wk =   0.0005926
        k(  566) = (   0.1539601  -0.1360828   0.1333333), wk =   0.0005926
        k(  567) = (   0.1154701  -0.1632993   0.2000000), wk =   0.0005926
        k(  568) = (   0.0769800  -0.1905159   0.2666667), wk =   0.0005926
        k(  569) = (   0.0384900  -0.2177324   0.3333333), wk =   0.0005926
        k(  570) = (  -0.0000000  -0.2449490   0.4000000), wk =   0.0005926
        k(  571) = (  -0.0384900  -0.2721655   0.4666667), wk =   0.0005926
        k(  572) = (   0.5003702   0.1088662  -0.4666667), wk =   0.0005926
        k(  573) = (   0.4618802   0.0816497  -0.4000000), wk =   0.0005926
        k(  574) = (   0.4233902   0.0544331  -0.3333333), wk =   0.0005926
        k(  575) = (   0.3849002   0.0272166  -0.2666667), wk =   0.0005926
        k(  576) = (   0.3464102  -0.0000000  -0.2000000), wk =   0.0005926
        k(  577) = (   0.3079201  -0.0272166  -0.1333333), wk =   0.0005926
        k(  578) = (   0.2694301  -0.0544331  -0.0666667), wk =   0.0005926
        k(  579) = (   0.2309401  -0.0000000   0.0000000), wk =   0.0005926
        k(  580) = (   0.1924501  -0.0272166   0.0666667), wk =   0.0005926
        k(  581) = (   0.1539601  -0.0544331   0.1333333), wk =   0.0005926
        k(  582) = (   0.1154701  -0.0816497   0.2000000), wk =   0.0005926
        k(  583) = (   0.0769800  -0.1088662   0.2666667), wk =   0.0005926
        k(  584) = (   0.0384900  -0.1360828   0.3333333), wk =   0.0005926
        k(  585) = (  -0.0000000  -0.1632993   0.4000000), wk =   0.0005926
        k(  586) = (  -0.0384900  -0.1905159   0.4666667), wk =   0.0005926
        k(  587) = (   0.5003702   0.1905159  -0.4666667), wk =   0.0005926
        k(  588) = (   0.4618802   0.1632993  -0.4000000), wk =   0.0005926
        k(  589) = (   0.4233902   0.1360828  -0.3333333), wk =   0.0005926
        k(  590) = (   0.3849002   0.1088662  -0.2666667), wk =   0.0005926
        k(  591) = (   0.3464102   0.0816497  -0.2000000), wk =   0.0005926
        k(  592) = (   0.3079201   0.0544331  -0.1333333), wk =   0.0005926
        k(  593) = (   0.2694301   0.0272166  -0.0666667), wk =   0.0005926
        k(  594) = (   0.2309401   0.0816497   0.0000000), wk =   0.0005926
        k(  595) = (   0.1924501   0.0544331   0.0666667), wk =   0.0005926
        k(  596) = (   0.1539601   0.0272166   0.1333333), wk =   0.0005926
        k(  597) = (   0.1154701  -0.0000000   0.2000000), wk =   0.0005926
        k(  598) = (   0.0769800  -0.0272166   0.2666667), wk =   0.0005926
        k(  599) = (   0.0384900  -0.0544331   0.3333333), wk =   0.0005926
        k(  600) = (  -0.0000000  -0.0816497   0.4000000), wk =   0.0005926
        k(  601) = (  -0.0384900  -0.1088662   0.4666667), wk =   0.0005926
        k(  602) = (   0.5003702   0.2721655  -0.4666667), wk =   0.0005926
        k(  603) = (   0.4618802   0.2449490  -0.4000000), wk =   0.0005926
        k(  604) = (   0.4233902   0.2177324  -0.3333333), wk =   0.0005926
        k(  605) = (   0.3849002   0.1905159  -0.2666667), wk =   0.0005926
        k(  606) = (   0.3464102   0.1632993  -0.2000000), wk =   0.0005926
        k(  607) = (   0.3079201   0.1360828  -0.1333333), wk =   0.0005926
        k(  608) = (   0.2694301   0.1088662  -0.0666667), wk =   0.0005926
        k(  609) = (   0.2309401   0.1632993   0.0000000), wk =   0.0005926
        k(  610) = (   0.1924501   0.1360828   0.0666667), wk =   0.0005926
        k(  611) = (   0.1539601   0.1088662   0.1333333), wk =   0.0005926
        k(  612) = (   0.1154701   0.0816497   0.2000000), wk =   0.0005926
        k(  613) = (   0.0769800   0.0544331   0.2666667), wk =   0.0005926
        k(  614) = (   0.0384900   0.0272166   0.3333333), wk =   0.0005926
        k(  615) = (  -0.0000000  -0.0000000   0.4000000), wk =   0.0005926
        k(  616) = (  -0.0384900  -0.0272166   0.4666667), wk =   0.0005926
        k(  617) = (   0.5003702   0.3538152  -0.4666667), wk =   0.0005926
        k(  618) = (   0.4618802   0.3265986  -0.4000000), wk =   0.0005926
        k(  619) = (   0.4233902   0.2993821  -0.3333333), wk =   0.0005926
        k(  620) = (   0.3849002   0.2721655  -0.2666667), wk =   0.0005926
        k(  621) = (   0.3464102   0.2449490  -0.2000000), wk =   0.0005926
        k(  622) = (   0.3079201   0.2177324  -0.1333333), wk =   0.0005926
        k(  623) = (   0.2694301   0.1905159  -0.0666667), wk =   0.0005926
        k(  624) = (   0.2309401   0.2449490   0.0000000), wk =   0.0005926
        k(  625) = (   0.1924501   0.2177324   0.0666667), wk =   0.0005926
        k(  626) = (   0.1539601   0.1905159   0.1333333), wk =   0.0005926
        k(  627) = (   0.1154701   0.1632993   0.2000000), wk =   0.0005926
        k(  628) = (   0.0769800   0.1360828   0.2666667), wk =   0.0005926
        k(  629) = (   0.0384900   0.1088662   0.3333333), wk =   0.0005926
        k(  630) = (  -0.0000000   0.0816497   0.4000000), wk =   0.0005926
        k(  631) = (  -0.0384900   0.0544331   0.4666667), wk =   0.0005926
        k(  632) = (   0.5003702   0.4354648  -0.4666667), wk =   0.0005926
        k(  633) = (   0.4618802   0.4082483  -0.4000000), wk =   0.0005926
        k(  634) = (   0.4233902   0.3810317  -0.3333333), wk =   0.0005926
        k(  635) = (   0.3849002   0.3538152  -0.2666667), wk =   0.0005926
        k(  636) = (   0.3464102   0.3265986  -0.2000000), wk =   0.0005926
        k(  637) = (   0.3079201   0.2993821  -0.1333333), wk =   0.0005926
        k(  638) = (   0.2694301   0.2721655  -0.0666667), wk =   0.0005926
        k(  639) = (   0.2309401   0.3265986   0.0000000), wk =   0.0005926
        k(  640) = (   0.1924501   0.2993821   0.0666667), wk =   0.0005926
        k(  641) = (   0.1539601   0.2721655   0.1333333), wk =   0.0005926
        k(  642) = (   0.1154701   0.2449490   0.2000000), wk =   0.0005926
        k(  643) = (   0.0769800   0.2177324   0.2666667), wk =   0.0005926
        k(  644) = (   0.0384900   0.1905159   0.3333333), wk =   0.0005926
        k(  645) = (  -0.0000000   0.1632993   0.4000000), wk =   0.0005926
        k(  646) = (  -0.0384900   0.1360828   0.4666667), wk =   0.0005926
        k(  647) = (   0.5003702   0.5171145  -0.4666667), wk =   0.0005926
        k(  648) = (   0.4618802   0.4898979  -0.4000000), wk =   0.0005926
        k(  649) = (   0.4233902   0.4626814  -0.3333333), wk =   0.0005926
        k(  650) = (   0.3849002   0.4354648  -0.2666667), wk =   0.0005926
        k(  651) = (   0.3464102   0.4082483  -0.2000000), wk =   0.0005926
        k(  652) = (   0.3079201   0.3810317  -0.1333333), wk =   0.0005926
        k(  653) = (   0.2694301   0.3538152  -0.0666667), wk =   0.0005926
        k(  654) = (   0.2309401   0.4082483   0.0000000), wk =   0.0005926
        k(  655) = (   0.1924501   0.3810317   0.0666667), wk =   0.0005926
        k(  656) = (   0.1539601   0.3538152   0.1333333), wk =   0.0005926
        k(  657) = (   0.1154701   0.3265986   0.2000000), wk =   0.0005926
        k(  658) = (   0.0769800   0.2993821   0.2666667), wk =   0.0005926
        k(  659) = (   0.0384900   0.2721655   0.3333333), wk =   0.0005926
        k(  660) = (  -0.0000000   0.2449490   0.4000000), wk =   0.0005926
        k(  661) = (  -0.0384900   0.2177324   0.4666667), wk =   0.0005926
        k(  662) = (   0.5003702   0.5987642  -0.4666667), wk =   0.0005926
        k(  663) = (   0.4618802   0.5715476  -0.4000000), wk =   0.0005926
        k(  664) = (   0.4233902   0.5443311  -0.3333333), wk =   0.0005926
        k(  665) = (   0.3849002   0.5171145  -0.2666667), wk =   0.0005926
        k(  666) = (   0.3464102   0.4898979  -0.2000000), wk =   0.0005926
        k(  667) = (   0.3079201   0.4626814  -0.1333333), wk =   0.0005926
        k(  668) = (   0.2694301   0.4354648  -0.0666667), wk =   0.0005926
        k(  669) = (   0.2309401   0.4898979   0.0000000), wk =   0.0005926
        k(  670) = (   0.1924501   0.4626814   0.0666667), wk =   0.0005926
        k(  671) = (   0.1539601   0.4354648   0.1333333), wk =   0.0005926
        k(  672) = (   0.1154701   0.4082483   0.2000000), wk =   0.0005926
        k(  673) = (   0.0769800   0.3810317   0.2666667), wk =   0.0005926
        k(  674) = (   0.0384900   0.3538152   0.3333333), wk =   0.0005926
        k(  675) = (  -0.0000000   0.3265986   0.4000000), wk =   0.0005926
        k(  676) = (  -0.0384900   0.2993821   0.4666667), wk =   0.0005926
        k(  677) = (   0.5003702   0.6804138  -0.4666667), wk =   0.0005926
        k(  678) = (   0.4618802   0.6531973  -0.4000000), wk =   0.0005926
        k(  679) = (   0.4233902   0.6259807  -0.3333333), wk =   0.0005926
        k(  680) = (   0.3849002   0.5987642  -0.2666667), wk =   0.0005926
        k(  681) = (   0.3464102   0.5715476  -0.2000000), wk =   0.0005926
        k(  682) = (   0.3079201   0.5443311  -0.1333333), wk =   0.0005926
        k(  683) = (   0.2694301   0.5171145  -0.0666667), wk =   0.0005926
        k(  684) = (   0.2309401  -0.6531973   0.0000000), wk =   0.0005926
        k(  685) = (   0.1924501  -0.6804138   0.0666667), wk =   0.0005926
        k(  686) = (   0.1539601  -0.7076304   0.1333333), wk =   0.0005926
        k(  687) = (   0.1154701  -0.7348469   0.2000000), wk =   0.0005926
        k(  688) = (   0.0769800  -0.7620635   0.2666667), wk =   0.0005926
        k(  689) = (   0.0384900  -0.7892800   0.3333333), wk =   0.0005926
        k(  690) = (  -0.0000000  -0.8164966   0.4000000), wk =   0.0005926
        k(  691) = (  -0.0384900  -0.8437131   0.4666667), wk =   0.0005926
        k(  692) = (   0.5003702  -0.4626814  -0.4666667), wk =   0.0005926
        k(  693) = (   0.4618802  -0.4898979  -0.4000000), wk =   0.0005926
        k(  694) = (   0.4233902  -0.5171145  -0.3333333), wk =   0.0005926
        k(  695) = (   0.3849002  -0.5443311  -0.2666667), wk =   0.0005926
        k(  696) = (   0.3464102  -0.5715476  -0.2000000), wk =   0.0005926
        k(  697) = (   0.3079201  -0.5987642  -0.1333333), wk =   0.0005926
        k(  698) = (   0.2694301  -0.6259807  -0.0666667), wk =   0.0005926
        k(  699) = (   0.2309401  -0.5715476   0.0000000), wk =   0.0005926
        k(  700) = (   0.1924501  -0.5987642   0.0666667), wk =   0.0005926
        k(  701) = (   0.1539601  -0.6259807   0.1333333), wk =   0.0005926
        k(  702) = (   0.1154701  -0.6531973   0.2000000), wk =   0.0005926
        k(  703) = (   0.0769800  -0.6804138   0.2666667), wk =   0.0005926
        k(  704) = (   0.0384900  -0.7076304   0.3333333), wk =   0.0005926
        k(  705) = (  -0.0000000  -0.7348469   0.4000000), wk =   0.0005926
        k(  706) = (  -0.0384900  -0.7620635   0.4666667), wk =   0.0005926
        k(  707) = (   0.5003702  -0.3810317  -0.4666667), wk =   0.0005926
        k(  708) = (   0.4618802  -0.4082483  -0.4000000), wk =   0.0005926
        k(  709) = (   0.4233902  -0.4354648  -0.3333333), wk =   0.0005926
        k(  710) = (   0.3849002  -0.4626814  -0.2666667), wk =   0.0005926
        k(  711) = (   0.3464102  -0.4898979  -0.2000000), wk =   0.0005926
        k(  712) = (   0.3079201  -0.5171145  -0.1333333), wk =   0.0005926
        k(  713) = (   0.2694301  -0.5443311  -0.0666667), wk =   0.0005926
        k(  714) = (   0.2309401  -0.4898979   0.0000000), wk =   0.0005926
        k(  715) = (   0.1924501  -0.5171145   0.0666667), wk =   0.0005926
        k(  716) = (   0.1539601  -0.5443311   0.1333333), wk =   0.0005926
        k(  717) = (   0.1154701  -0.5715476   0.2000000), wk =   0.0005926
        k(  718) = (   0.0769800  -0.5987642   0.2666667), wk =   0.0005926
        k(  719) = (   0.0384900  -0.6259807   0.3333333), wk =   0.0005926
        k(  720) = (  -0.0000000  -0.6531973   0.4000000), wk =   0.0005926
        k(  721) = (  -0.0384900  -0.6804138   0.4666667), wk =   0.0005926
        k(  722) = (   0.5003702  -0.2993821  -0.4666667), wk =   0.0005926
        k(  723) = (   0.4618802  -0.3265986  -0.4000000), wk =   0.0005926
        k(  724) = (   0.4233902  -0.3538152  -0.3333333), wk =   0.0005926
        k(  725) = (   0.3849002  -0.3810317  -0.2666667), wk =   0.0005926
        k(  726) = (   0.3464102  -0.4082483  -0.2000000), wk =   0.0005926
        k(  727) = (   0.3079201  -0.4354648  -0.1333333), wk =   0.0005926
        k(  728) = (   0.2694301  -0.4626814  -0.0666667), wk =   0.0005926
        k(  729) = (   0.2309401  -0.4082483   0.0000000), wk =   0.0005926
        k(  730) = (   0.1924501  -0.4354648   0.0666667), wk =   0.0005926
        k(  731) = (   0.1539601  -0.4626814   0.1333333), wk =   0.0005926
        k(  732) = (   0.1154701  -0.4898979   0.2000000), wk =   0.0005926
        k(  733) = (   0.0769800  -0.5171145   0.2666667), wk =   0.0005926
        k(  734) = (   0.0384900  -0.5443311   0.3333333), wk =   0.0005926
        k(  735) = (  -0.0000000  -0.5715476   0.4000000), wk =   0.0005926
        k(  736) = (  -0.0384900  -0.5987642   0.4666667), wk =   0.0005926
        k(  737) = (   0.5003702  -0.2177324  -0.4666667), wk =   0.0005926
        k(  738) = (   0.4618802  -0.2449490  -0.4000000), wk =   0.0005926
        k(  739) = (   0.4233902  -0.2721655  -0.3333333), wk =   0.0005926
        k(  740) = (   0.3849002  -0.2993821  -0.2666667), wk =   0.0005926
        k(  741) = (   0.3464102  -0.3265986  -0.2000000), wk =   0.0005926
        k(  742) = (   0.3079201  -0.3538152  -0.1333333), wk =   0.0005926
        k(  743) = (   0.2694301  -0.3810317  -0.0666667), wk =   0.0005926
        k(  744) = (   0.2309401  -0.3265986   0.0000000), wk =   0.0005926
        k(  745) = (   0.1924501  -0.3538152   0.0666667), wk =   0.0005926
        k(  746) = (   0.1539601  -0.3810317   0.1333333), wk =   0.0005926
        k(  747) = (   0.1154701  -0.4082483   0.2000000), wk =   0.0005926
        k(  748) = (   0.0769800  -0.4354648   0.2666667), wk =   0.0005926
        k(  749) = (   0.0384900  -0.4626814   0.3333333), wk =   0.0005926
        k(  750) = (  -0.0000000  -0.4898979   0.4000000), wk =   0.0005926
        k(  751) = (  -0.0384900  -0.5171145   0.4666667), wk =   0.0005926
        k(  752) = (   0.5003702  -0.1360828  -0.4666667), wk =   0.0005926
        k(  753) = (   0.4618802  -0.1632993  -0.4000000), wk =   0.0005926
        k(  754) = (   0.4233902  -0.1905159  -0.3333333), wk =   0.0005926
        k(  755) = (   0.3849002  -0.2177324  -0.2666667), wk =   0.0005926
        k(  756) = (   0.3464102  -0.2449490  -0.2000000), wk =   0.0005926
        k(  757) = (   0.3079201  -0.2721655  -0.1333333), wk =   0.0005926
        k(  758) = (   0.2694301  -0.2993821  -0.0666667), wk =   0.0005926
        k(  759) = (   0.2309401  -0.2449490   0.0000000), wk =   0.0005926
        k(  760) = (   0.1924501  -0.2721655   0.0666667), wk =   0.0005926
        k(  761) = (   0.1539601  -0.2993821   0.1333333), wk =   0.0005926
        k(  762) = (   0.1154701  -0.3265986   0.2000000), wk =   0.0005926
        k(  763) = (   0.0769800  -0.3538152   0.2666667), wk =   0.0005926
        k(  764) = (   0.0384900  -0.3810317   0.3333333), wk =   0.0005926
        k(  765) = (  -0.0000000  -0.4082483   0.4000000), wk =   0.0005926
        k(  766) = (  -0.0384900  -0.4354648   0.4666667), wk =   0.0005926
        k(  767) = (   0.5003702  -0.0544331  -0.4666667), wk =   0.0005926
        k(  768) = (   0.4618802  -0.0816497  -0.4000000), wk =   0.0005926
        k(  769) = (   0.4233902  -0.1088662  -0.3333333), wk =   0.0005926
        k(  770) = (   0.3849002  -0.1360828  -0.2666667), wk =   0.0005926
        k(  771) = (   0.3464102  -0.1632993  -0.2000000), wk =   0.0005926
        k(  772) = (   0.3079201  -0.1905159  -0.1333333), wk =   0.0005926
        k(  773) = (   0.2694301  -0.2177324  -0.0666667), wk =   0.0005926
        k(  774) = (   0.2309401  -0.1632993   0.0000000), wk =   0.0005926
        k(  775) = (   0.1924501  -0.1905159   0.0666667), wk =   0.0005926
        k(  776) = (   0.1539601  -0.2177324   0.1333333), wk =   0.0005926
        k(  777) = (   0.1154701  -0.2449490   0.2000000), wk =   0.0005926
        k(  778) = (   0.0769800  -0.2721655   0.2666667), wk =   0.0005926
        k(  779) = (   0.0384900  -0.2993821   0.3333333), wk =   0.0005926
        k(  780) = (  -0.0000000  -0.3265986   0.4000000), wk =   0.0005926
        k(  781) = (  -0.0384900  -0.3538152   0.4666667), wk =   0.0005926
        k(  782) = (   0.5003702   0.0272166  -0.4666667), wk =   0.0005926
        k(  783) = (   0.4618802   0.0000000  -0.4000000), wk =   0.0005926
        k(  784) = (   0.4233902  -0.0272166  -0.3333333), wk =   0.0005926
        k(  785) = (   0.3849002  -0.0544331  -0.2666667), wk =   0.0005926
        k(  786) = (   0.3464102  -0.0816497  -0.2000000), wk =   0.0005926
        k(  787) = (   0.3079201  -0.1088662  -0.1333333), wk =   0.0005926
        k(  788) = (   0.2694301  -0.1360828  -0.0666667), wk =   0.0005926
        k(  789) = (   0.3079201  -0.1088662   0.0000000), wk =   0.0005926
        k(  790) = (   0.2694301  -0.1360828   0.0666667), wk =   0.0005926
        k(  791) = (   0.2309401  -0.1632993   0.1333333), wk =   0.0005926
        k(  792) = (   0.1924501  -0.1905159   0.2000000), wk =   0.0005926
        k(  793) = (   0.1539601  -0.2177324   0.2666667), wk =   0.0005926
        k(  794) = (   0.1154701  -0.2449490   0.3333333), wk =   0.0005926
        k(  795) = (   0.0769800  -0.2721655   0.4000000), wk =   0.0005926
        k(  796) = (   0.0384900  -0.2993821   0.4666667), wk =   0.0005926
        k(  797) = (   0.5773503   0.0816497  -0.4666667), wk =   0.0005926
        k(  798) = (   0.5388603   0.0544331  -0.4000000), wk =   0.0005926
        k(  799) = (   0.5003702   0.0272166  -0.3333333), wk =   0.0005926
        k(  800) = (   0.4618802  -0.0000000  -0.2666667), wk =   0.0005926
        k(  801) = (   0.4233902  -0.0272166  -0.2000000), wk =   0.0005926
        k(  802) = (   0.3849002  -0.0544331  -0.1333333), wk =   0.0005926
        k(  803) = (   0.3464102  -0.0816497  -0.0666667), wk =   0.0005926
        k(  804) = (   0.3079201  -0.0272166   0.0000000), wk =   0.0005926
        k(  805) = (   0.2694301  -0.0544331   0.0666667), wk =   0.0005926
        k(  806) = (   0.2309401  -0.0816497   0.1333333), wk =   0.0005926
        k(  807) = (   0.1924501  -0.1088662   0.2000000), wk =   0.0005926
        k(  808) = (   0.1539601  -0.1360828   0.2666667), wk =   0.0005926
        k(  809) = (   0.1154701  -0.1632993   0.3333333), wk =   0.0005926
        k(  810) = (   0.0769800  -0.1905159   0.4000000), wk =   0.0005926
        k(  811) = (   0.0384900  -0.2177324   0.4666667), wk =   0.0005926
        k(  812) = (   0.5773503   0.1632993  -0.4666667), wk =   0.0005926
        k(  813) = (   0.5388603   0.1360828  -0.4000000), wk =   0.0005926
        k(  814) = (   0.5003702   0.1088662  -0.3333333), wk =   0.0005926
        k(  815) = (   0.4618802   0.0816497  -0.2666667), wk =   0.0005926
        k(  816) = (   0.4233902   0.0544331  -0.2000000), wk =   0.0005926
        k(  817) = (   0.3849002   0.0272166  -0.1333333), wk =   0.0005926
        k(  818) = (   0.3464102  -0.0000000  -0.0666667), wk =   0.0005926
        k(  819) = (   0.3079201   0.0544331   0.0000000), wk =   0.0005926
        k(  820) = (   0.2694301   0.0272166   0.0666667), wk =   0.0005926
        k(  821) = (   0.2309401  -0.0000000   0.1333333), wk =   0.0005926
        k(  822) = (   0.1924501  -0.0272166   0.2000000), wk =   0.0005926
        k(  823) = (   0.1539601  -0.0544331   0.2666667), wk =   0.0005926
        k(  824) = (   0.1154701  -0.0816497   0.3333333), wk =   0.0005926
        k(  825) = (   0.0769800  -0.1088662   0.4000000), wk =   0.0005926
        k(  826) = (   0.0384900  -0.1360828   0.4666667), wk =   0.0005926
        k(  827) = (   0.5773503   0.2449490  -0.4666667), wk =   0.0005926
        k(  828) = (   0.5388603   0.2177324  -0.4000000), wk =   0.0005926
        k(  829) = (   0.5003702   0.1905159  -0.3333333), wk =   0.0005926
        k(  830) = (   0.4618802   0.1632993  -0.2666667), wk =   0.0005926
        k(  831) = (   0.4233902   0.1360828  -0.2000000), wk =   0.0005926
        k(  832) = (   0.3849002   0.1088662  -0.1333333), wk =   0.0005926
        k(  833) = (   0.3464102   0.0816497  -0.0666667), wk =   0.0005926
        k(  834) = (   0.3079201   0.1360828   0.0000000), wk =   0.0005926
        k(  835) = (   0.2694301   0.1088662   0.0666667), wk =   0.0005926
        k(  836) = (   0.2309401   0.0816497   0.1333333), wk =   0.0005926
        k(  837) = (   0.1924501   0.0544331   0.2000000), wk =   0.0005926
        k(  838) = (   0.1539601   0.0272166   0.2666667), wk =   0.0005926
        k(  839) = (   0.1154701  -0.0000000   0.3333333), wk =   0.0005926
        k(  840) = (   0.0769800  -0.0272166   0.4000000), wk =   0.0005926
        k(  841) = (   0.0384900  -0.0544331   0.4666667), wk =   0.0005926
        k(  842) = (   0.5773503   0.3265986  -0.4666667), wk =   0.0005926
        k(  843) = (   0.5388603   0.2993821  -0.4000000), wk =   0.0005926
        k(  844) = (   0.5003702   0.2721655  -0.3333333), wk =   0.0005926
        k(  845) = (   0.4618802   0.2449490  -0.2666667), wk =   0.0005926
        k(  846) = (   0.4233902   0.2177324  -0.2000000), wk =   0.0005926
        k(  847) = (   0.3849002   0.1905159  -0.1333333), wk =   0.0005926
        k(  848) = (   0.3464102   0.1632993  -0.0666667), wk =   0.0005926
        k(  849) = (   0.3079201   0.2177324   0.0000000), wk =   0.0005926
        k(  850) = (   0.2694301   0.1905159   0.0666667), wk =   0.0005926
        k(  851) = (   0.2309401   0.1632993   0.1333333), wk =   0.0005926
        k(  852) = (   0.1924501   0.1360828   0.2000000), wk =   0.0005926
        k(  853) = (   0.1539601   0.1088662   0.2666667), wk =   0.0005926
        k(  854) = (   0.1154701   0.0816497   0.3333333), wk =   0.0005926
        k(  855) = (   0.0769800   0.0544331   0.4000000), wk =   0.0005926
        k(  856) = (   0.0384900   0.0272166   0.4666667), wk =   0.0005926
        k(  857) = (   0.5773503   0.4082483  -0.4666667), wk =   0.0005926
        k(  858) = (   0.5388603   0.3810317  -0.4000000), wk =   0.0005926
        k(  859) = (   0.5003702   0.3538152  -0.3333333), wk =   0.0005926
        k(  860) = (   0.4618802   0.3265986  -0.2666667), wk =   0.0005926
        k(  861) = (   0.4233902   0.2993821  -0.2000000), wk =   0.0005926
        k(  862) = (   0.3849002   0.2721655  -0.1333333), wk =   0.0005926
        k(  863) = (   0.3464102   0.2449490  -0.0666667), wk =   0.0005926
        k(  864) = (   0.3079201   0.2993821   0.0000000), wk =   0.0005926
        k(  865) = (   0.2694301   0.2721655   0.0666667), wk =   0.0005926
        k(  866) = (   0.2309401   0.2449490   0.1333333), wk =   0.0005926
        k(  867) = (   0.1924501   0.2177324   0.2000000), wk =   0.0005926
        k(  868) = (   0.1539601   0.1905159   0.2666667), wk =   0.0005926
        k(  869) = (   0.1154701   0.1632993   0.3333333), wk =   0.0005926
        k(  870) = (   0.0769800   0.1360828   0.4000000), wk =   0.0005926
        k(  871) = (   0.0384900   0.1088662   0.4666667), wk =   0.0005926
        k(  872) = (   0.5773503   0.4898979  -0.4666667), wk =   0.0005926
        k(  873) = (   0.5388603   0.4626814  -0.4000000), wk =   0.0005926
        k(  874) = (   0.5003702   0.4354648  -0.3333333), wk =   0.0005926
        k(  875) = (   0.4618802   0.4082483  -0.2666667), wk =   0.0005926
        k(  876) = (   0.4233902   0.3810317  -0.2000000), wk =   0.0005926
        k(  877) = (   0.3849002   0.3538152  -0.1333333), wk =   0.0005926
        k(  878) = (   0.3464102   0.3265986  -0.0666667), wk =   0.0005926
        k(  879) = (   0.3079201   0.3810317   0.0000000), wk =   0.0005926
        k(  880) = (   0.2694301   0.3538152   0.0666667), wk =   0.0005926
        k(  881) = (   0.2309401   0.3265986   0.1333333), wk =   0.0005926
        k(  882) = (   0.1924501   0.2993821   0.2000000), wk =   0.0005926
        k(  883) = (   0.1539601   0.2721655   0.2666667), wk =   0.0005926
        k(  884) = (   0.1154701   0.2449490   0.3333333), wk =   0.0005926
        k(  885) = (   0.0769800   0.2177324   0.4000000), wk =   0.0005926
        k(  886) = (   0.0384900   0.1905159   0.4666667), wk =   0.0005926
        k(  887) = (   0.5773503   0.5715476  -0.4666667), wk =   0.0005926
        k(  888) = (   0.5388603   0.5443311  -0.4000000), wk =   0.0005926
        k(  889) = (   0.5003702   0.5171145  -0.3333333), wk =   0.0005926
        k(  890) = (   0.4618802   0.4898979  -0.2666667), wk =   0.0005926
        k(  891) = (   0.4233902   0.4626814  -0.2000000), wk =   0.0005926
        k(  892) = (   0.3849002   0.4354648  -0.1333333), wk =   0.0005926
        k(  893) = (   0.3464102   0.4082483  -0.0666667), wk =   0.0005926
        k(  894) = (   0.3079201   0.4626814   0.0000000), wk =   0.0005926
        k(  895) = (   0.2694301   0.4354648   0.0666667), wk =   0.0005926
        k(  896) = (   0.2309401   0.4082483   0.1333333), wk =   0.0005926
        k(  897) = (   0.1924501   0.3810317   0.2000000), wk =   0.0005926
        k(  898) = (   0.1539601   0.3538152   0.2666667), wk =   0.0005926
        k(  899) = (   0.1154701   0.3265986   0.3333333), wk =   0.0005926
        k(  900) = (   0.0769800   0.2993821   0.4000000), wk =   0.0005926
        k(  901) = (   0.0384900   0.2721655   0.4666667), wk =   0.0005926
        k(  902) = (   0.5773503   0.6531973  -0.4666667), wk =   0.0005926
        k(  903) = (   0.5388603   0.6259807  -0.4000000), wk =   0.0005926
        k(  904) = (   0.5003702   0.5987642  -0.3333333), wk =   0.0005926
        k(  905) = (   0.4618802   0.5715476  -0.2666667), wk =   0.0005926
        k(  906) = (   0.4233902   0.5443311  -0.2000000), wk =   0.0005926
        k(  907) = (   0.3849002   0.5171145  -0.1333333), wk =   0.0005926
        k(  908) = (   0.3464102   0.4898979  -0.0666667), wk =   0.0005926
        k(  909) = (   0.3079201  -0.6804138   0.0000000), wk =   0.0005926
        k(  910) = (   0.2694301  -0.7076304   0.0666667), wk =   0.0005926
        k(  911) = (   0.2309401  -0.7348469   0.1333333), wk =   0.0005926
        k(  912) = (   0.1924501  -0.7620635   0.2000000), wk =   0.0005926
        k(  913) = (   0.1539601  -0.7892800   0.2666667), wk =   0.0005926
        k(  914) = (   0.1154701  -0.8164966   0.3333333), wk =   0.0005926
        k(  915) = (   0.0769800  -0.8437131   0.4000000), wk =   0.0005926
        k(  916) = (   0.0384900  -0.8709297   0.4666667), wk =   0.0005926
        k(  917) = (   0.5773503  -0.4898979  -0.4666667), wk =   0.0005926
        k(  918) = (   0.5388603  -0.5171145  -0.4000000), wk =   0.0005926
        k(  919) = (   0.5003702  -0.5443311  -0.3333333), wk =   0.0005926
        k(  920) = (   0.4618802  -0.5715476  -0.2666667), wk =   0.0005926
        k(  921) = (   0.4233902  -0.5987642  -0.2000000), wk =   0.0005926
        k(  922) = (   0.3849002  -0.6259807  -0.1333333), wk =   0.0005926
        k(  923) = (   0.3464102  -0.6531973  -0.0666667), wk =   0.0005926
        k(  924) = (   0.3079201  -0.5987642   0.0000000), wk =   0.0005926
        k(  925) = (   0.2694301  -0.6259807   0.0666667), wk =   0.0005926
        k(  926) = (   0.2309401  -0.6531973   0.1333333), wk =   0.0005926
        k(  927) = (   0.1924501  -0.6804138   0.2000000), wk =   0.0005926
        k(  928) = (   0.1539601  -0.7076304   0.2666667), wk =   0.0005926
        k(  929) = (   0.1154701  -0.7348469   0.3333333), wk =   0.0005926
        k(  930) = (   0.0769800  -0.7620635   0.4000000), wk =   0.0005926
        k(  931) = (   0.0384900  -0.7892800   0.4666667), wk =   0.0005926
        k(  932) = (   0.5773503  -0.4082483  -0.4666667), wk =   0.0005926
        k(  933) = (   0.5388603  -0.4354648  -0.4000000), wk =   0.0005926
        k(  934) = (   0.5003702  -0.4626814  -0.3333333), wk =   0.0005926
        k(  935) = (   0.4618802  -0.4898979  -0.2666667), wk =   0.0005926
        k(  936) = (   0.4233902  -0.5171145  -0.2000000), wk =   0.0005926
        k(  937) = (   0.3849002  -0.5443311  -0.1333333), wk =   0.0005926
        k(  938) = (   0.3464102  -0.5715476  -0.0666667), wk =   0.0005926
        k(  939) = (   0.3079201  -0.5171145   0.0000000), wk =   0.0005926
        k(  940) = (   0.2694301  -0.5443311   0.0666667), wk =   0.0005926
        k(  941) = (   0.2309401  -0.5715476   0.1333333), wk =   0.0005926
        k(  942) = (   0.1924501  -0.5987642   0.2000000), wk =   0.0005926
        k(  943) = (   0.1539601  -0.6259807   0.2666667), wk =   0.0005926
        k(  944) = (   0.1154701  -0.6531973   0.3333333), wk =   0.0005926
        k(  945) = (   0.0769800  -0.6804138   0.4000000), wk =   0.0005926
        k(  946) = (   0.0384900  -0.7076304   0.4666667), wk =   0.0005926
        k(  947) = (   0.5773503  -0.3265986  -0.4666667), wk =   0.0005926
        k(  948) = (   0.5388603  -0.3538152  -0.4000000), wk =   0.0005926
        k(  949) = (   0.5003702  -0.3810317  -0.3333333), wk =   0.0005926
        k(  950) = (   0.4618802  -0.4082483  -0.2666667), wk =   0.0005926
        k(  951) = (   0.4233902  -0.4354648  -0.2000000), wk =   0.0005926
        k(  952) = (   0.3849002  -0.4626814  -0.1333333), wk =   0.0005926
        k(  953) = (   0.3464102  -0.4898979  -0.0666667), wk =   0.0005926
        k(  954) = (   0.3079201  -0.4354648   0.0000000), wk =   0.0005926
        k(  955) = (   0.2694301  -0.4626814   0.0666667), wk =   0.0005926
        k(  956) = (   0.2309401  -0.4898979   0.1333333), wk =   0.0005926
        k(  957) = (   0.1924501  -0.5171145   0.2000000), wk =   0.0005926
        k(  958) = (   0.1539601  -0.5443311   0.2666667), wk =   0.0005926
        k(  959) = (   0.1154701  -0.5715476   0.3333333), wk =   0.0005926
        k(  960) = (   0.0769800  -0.5987642   0.4000000), wk =   0.0005926
        k(  961) = (   0.0384900  -0.6259807   0.4666667), wk =   0.0005926
        k(  962) = (   0.5773503  -0.2449490  -0.4666667), wk =   0.0005926
        k(  963) = (   0.5388603  -0.2721655  -0.4000000), wk =   0.0005926
        k(  964) = (   0.5003702  -0.2993821  -0.3333333), wk =   0.0005926
        k(  965) = (   0.4618802  -0.3265986  -0.2666667), wk =   0.0005926
        k(  966) = (   0.4233902  -0.3538152  -0.2000000), wk =   0.0005926
        k(  967) = (   0.3849002  -0.3810317  -0.1333333), wk =   0.0005926
        k(  968) = (   0.3464102  -0.4082483  -0.0666667), wk =   0.0005926
        k(  969) = (   0.3079201  -0.3538152   0.0000000), wk =   0.0005926
        k(  970) = (   0.2694301  -0.3810317   0.0666667), wk =   0.0005926
        k(  971) = (   0.2309401  -0.4082483   0.1333333), wk =   0.0005926
        k(  972) = (   0.1924501  -0.4354648   0.2000000), wk =   0.0005926
        k(  973) = (   0.1539601  -0.4626814   0.2666667), wk =   0.0005926
        k(  974) = (   0.1154701  -0.4898979   0.3333333), wk =   0.0005926
        k(  975) = (   0.0769800  -0.5171145   0.4000000), wk =   0.0005926
        k(  976) = (   0.0384900  -0.5443311   0.4666667), wk =   0.0005926
        k(  977) = (   0.5773503  -0.1632993  -0.4666667), wk =   0.0005926
        k(  978) = (   0.5388603  -0.1905159  -0.4000000), wk =   0.0005926
        k(  979) = (   0.5003702  -0.2177324  -0.3333333), wk =   0.0005926
        k(  980) = (   0.4618802  -0.2449490  -0.2666667), wk =   0.0005926
        k(  981) = (   0.4233902  -0.2721655  -0.2000000), wk =   0.0005926
[...]
    19.4680

     occupation numbers 
     1.0000   1.0000   1.0000   1.0000   1.0000   0.0000   0.0000   0.0000
     0.0000

          k = 0.6928-0.4899-0.2667 (  1940 PWs)   bands (ev):

   -40.4050 -18.8735  -1.3836  -0.7784   0.1950  12.6392  15.8611  19.3786
    19.4224

     occupation numbers 
     1.0000   1.0000   1.0000   1.0000   1.0000   0.0000   0.0000   0.0000
     0.0000

          k = 0.6543-0.5171-0.2000 (  1938 PWs)   bands (ev):

   -40.4035 -18.8483  -1.4291  -0.8176   0.0748  13.0401  15.8748  19.0829
    19.4757

     occupation numbers 
     1.0000   1.0000   1.0000   1.0000   1.0000   0.0000   0.0000   0.0000
     0.0000

          k = 0.6158-0.5443-0.1333 (  1936 PWs)   bands (ev):

   -40.4014 -18.8154  -1.6162  -0.7268  -0.0661  13.4490  15.9793  18.6866
    19.5917

     occupation numbers 
     1.0000   1.0000   1.0000   1.0000   1.0000   0.0000   0.0000   0.0000
     0.0000

          k = 0.5774-0.5715-0.0667 (  1937 PWs)   bands (ev):

   -40.3990 -18.7801  -1.7999  -0.6752  -0.1695  13.8548  15.9778  18.4389
    19.7680

     occupation numbers 
     1.0000   1.0000   1.0000   1.0000   1.0000   0.0000   0.0000   0.0000
     0.0000

          k = 0.5389-0.5171 0.0000 (  1932 PWs)   bands (ev):

   -40.3992 -18.7946  -1.7389  -0.7127  -0.0741  13.4543  15.8127  18.7417
    19.6728

     occupation numbers 
     1.0000   1.0000   1.0000   1.0000   1.0000   0.0000   0.0000   0.0000
     0.0000

          k = 0.5004-0.5443 0.0667 (  1936 PWs)   bands (ev):

   -40.3970 -18.7634  -1.7293  -0.9101  -0.1192  14.0008  15.5426  18.5676
    19.5654

     occupation numbers 
     1.0000   1.0000   1.0000   1.0000   1.0000   0.0000   0.0000   0.0000
     0.0000

          k = 0.4619-0.5715 0.1333 (  1928 PWs)   bands (ev):

   -40.3952 -18.7389  -1.6486  -1.1238  -0.1769  14.6364  15.3134  18.1893
    19.3536

     occupation numbers 
     1.0000   1.0000   1.0000   1.0000   1.0000   0.0000   0.0000   0.0000
     0.0000

          k = 0.4234-0.5988 0.2000 (  1929 PWs)   bands (ev):

   -40.3943 -18.7254  -1.5094  -1.3275  -0.2201  15.1446  15.2097  17.7385
    19.2500

     occupation numbers 
     1.0000   1.0000   1.0000   1.0000   1.0000   0.0000   0.0000   0.0000
     0.0000

          k = 0.3849-0.6260 0.2667 (  1929 PWs)   bands (ev):

   -40.3943 -18.7254  -1.5094  -1.3275  -0.2201  15.1446  15.2097  17.7385
    19.2500

     occupation numbers 
     1.0000   1.0000   1.0000   1.0000   1.0000   0.0000   0.0000   0.0000
     0.0000

          k = 0.3464-0.6532 0.3333 (  1928 PWs)   bands (ev):

   -40.3952 -18.7389  -1.6486  -1.1238  -0.1769  14.6364  15.3134  18.1893
    19.3536

     occupation numbers 
     1.0000   1.0000   1.0000   1.0000   1.0000   0.0000   0.0000   0.0000
     0.0000

          k = 0.3079-0.6804 0.4000 (  1936 PWs)   bands (ev):

   -40.3970 -18.7634  -1.7293  -0.9101  -0.1192  14.0008  15.5426  18.5676
    19.5654

     occupation numbers 
     1.0000   1.0000   1.0000   1.0000   1.0000   0.0000   0.0000   0.0000
     0.0000

          k = 0.2694-0.7076 0.4667 (  1932 PWs)   bands (ev):

   -40.3992 -18.7946  -1.7389  -0.7127  -0.0741  13.4543  15.8127  18.7417
    19.6728

     occupation numbers 
     1.0000   1.0000   1.0000   1.0000   1.0000   0.0000   0.0000   0.0000
     0.0000

          k = 0.8083-0.3266-0.4667 (  1941 PWs)   bands (ev):

   -40.4016 -18.8269  -1.6752  -0.5977  -0.0203  13.0500  15.9981  18.8696
    19.5724

     occupation numbers 
     1.0000   1.0000   1.0000   1.0000   1.0000   0.0000   0.0000   0.0000
     0.0000

          k = 0.7698-0.3538-0.4000 (  1940 PWs)   bands (ev):

   -40.4036 -18.8547  -1.5474  -0.6359   0.0857  12.7854  15.9880  19.1015
    19.4566

     occupation numbers 
     1.0000   1.0000   1.0000   1.0000   1.0000   0.0000   0.0000   0.0000
     0.0000

          k = 0.7313-0.3810-0.3333 (  1940 PWs)   bands (ev):

   -40.4050 -18.8735  -1.3836  -0.7784   0.1950  12.6392  15.8611  19.3786
    19.4224

     occupation numbers 
     1.0000   1.0000   1.0000   1.0000   1.0000   0.0000   0.0000   0.0000
     0.0000

          k = 0.6928-0.4082-0.2667 (  1943 PWs)   bands (ev):

   -40.4055 -18.8801  -1.2814  -0.8788   0.2393  12.5928  15.7938  19.3789
    19.5501

     occupation numbers 
     1.0000   1.0000   1.0000   1.0000   1.0000   0.0000   0.0000   0.0000
     0.0000

          k = 0.6543-0.4355-0.2000 (  1940 PWs)   bands (ev):

   -40.4050 -18.8735  -1.3836  -0.7784   0.1950  12.6392  15.8611  19.3786
    19.4224

     occupation numbers 
     1.0000   1.0000   1.0000   1.0000   1.0000   0.0000   0.0000   0.0000
     0.0000

          k = 0.6158-0.4627-0.1333 (  1940 PWs)   bands (ev):

   -40.4036 -18.8547  -1.5474  -0.6359   0.0857  12.7854  15.9880  19.1015
    19.4566

     occupation numbers 
     1.0000   1.0000   1.0000   1.0000   1.0000   0.0000   0.0000   0.0000
     0.0000

          k = 0.5774-0.4899-0.0667 (  1941 PWs)   bands (ev):

   -40.4016 -18.8269  -1.6752  -0.5977  -0.0203  13.0500  15.9981  18.8696
    19.5724

     occupation numbers 
     1.0000   1.0000   1.0000   1.0000   1.0000   0.0000   0.0000   0.0000
     0.0000

          k = 0.5389-0.4355 0.0000 (  1947 PWs)   bands (ev):

   -40.4020 -18.8446  -1.7252  -0.4676   0.0749  12.5678  16.0411  19.0222
    19.4450

     occupation numbers 
     1.0000   1.0000   1.0000   1.0000   1.0000   0.0000   0.0000   0.0000
     0.0000

          k = 0.5004-0.4627 0.0667 (  1939 PWs)   bands (ev):

   -40.3997 -18.8110  -1.6709  -0.7451   0.0227  13.0949  15.7740  18.9554
    19.3931

     occupation numbers 
     1.0000   1.0000   1.0000   1.0000   1.0000   0.0000   0.0000   0.0000
     0.0000

          k = 0.4619-0.4899 0.1333 (  1936 PWs)   bands (ev):

   -40.3974 -18.7760  -1.5615  -1.0524  -0.0637  13.7824  15.5253  18.7164
    19.2558

     occupation numbers 
     1.0000   1.0000   1.0000   1.0000   1.0000   0.0000   0.0000   0.0000
     0.0000

          k = 0.4234-0.5171 0.2000 (  1930 PWs)   bands (ev):

   -40.3956 -18.7455  -1.5126  -1.2366  -0.1622  14.5016  15.3987  18.1792
    19.2530

     occupation numbers 
     1.0000   1.0000   1.0000   1.0000   1.0000   0.0000   0.0000   0.0000
     0.0000

          k = 0.3849-0.5443 0.2667 (  1933 PWs)   bands (ev):

   -40.3945 -18.7250  -1.6977  -1.1171  -0.2371  14.9532  15.4929  17.6965
    19.3376

     occupation numbers 
     1.0000   1.0000   1.0000   1.0000   1.0000   0.0000   0.0000   0.0000
     0.0000

          k = 0.3464-0.5715 0.3333 (  1929 PWs)   bands (ev):

   -40.3943 -18.7184  -1.8645  -0.9530  -0.2635  15.0559  15.4965  17.7166
    19.5003

     occupation numbers 
     1.0000   1.0000   1.0000   1.0000   1.0000   0.0000   0.0000   0.0000
     0.0000

          k = 0.3079-0.5988 0.4000 (  1934 PWs)   bands (ev):

   -40.3952 -18.7268  -1.9413  -0.8183  -0.2468  14.7769  15.5373  18.0688
    19.7489

     occupation numbers 
     1.0000   1.0000   1.0000   1.0000   1.0000   0.0000   0.0000   0.0000
     0.0000

          k = 0.2694-0.6260 0.4667 (  1941 PWs)   bands (ev):

   -40.3968 -18.7487  -1.9170  -0.7183  -0.2166  14.2981  15.7778  18.3089
    19.9001

     occupation numbers 
     1.0000   1.0000   1.0000   1.0000   1.0000   0.0000   0.0000   0.0000
     0.0000

          k = 0.8083-0.2449-0.4667 (  1937 PWs)   bands (ev):

   -40.3990 -18.7801  -1.7999  -0.6752  -0.1695  13.8548  15.9778  18.4389
    19.7680

     occupation numbers 
     1.0000   1.0000   1.0000   1.0000   1.0000   0.0000   0.0000   0.0000
     0.0000

          k = 0.7698-0.2722-0.4000 (  1936 PWs)   bands (ev):

   -40.4014 -18.8154  -1.6162  -0.7268  -0.0661  13.4490  15.9793  18.6866
    19.5917

     occupation numbers 
     1.0000   1.0000   1.0000   1.0000   1.0000   0.0000   0.0000   0.0000
     0.0000

          k = 0.7313-0.2994-0.3333 (  1938 PWs)   bands (ev):

   -40.4035 -18.8483  -1.4291  -0.8176   0.0748  13.0401  15.8748  19.0829
    19.4757

     occupation numbers 
     1.0000   1.0000   1.0000   1.0000   1.0000   0.0000   0.0000   0.0000
     0.0000

          k = 0.6928-0.3266-0.2667 (  1940 PWs)   bands (ev):

   -40.4050 -18.8735  -1.3836  -0.7784   0.1950  12.6392  15.8611  19.3786
    19.4224

     occupation numbers 
     1.0000   1.0000   1.0000   1.0000   1.0000   0.0000   0.0000   0.0000
     0.0000

          k = 0.6543-0.3538-0.2000 (  1943 PWs)   bands (ev):

   -40.4056 -18.8867  -1.4960  -0.5851   0.2462  12.3244  15.9819  19.3424
    19.4680

     occupation numbers 
     1.0000   1.0000   1.0000   1.0000   1.0000   0.0000   0.0000   0.0000
     0.0000

          k = 0.6158-0.3810-0.1333 (  1941 PWs)   bands (ev):

   -40.4053 -18.8858  -1.6251  -0.3954   0.2094  12.1802  16.1449  19.2895
    19.3469

     occupation numbers 
     1.0000   1.0000   1.0000   1.0000   1.0000   0.0000   0.0000   0.0000
     0.0000

          k = 0.5774-0.4082-0.0667 (  1940 PWs)   bands (ev):

   -40.4040 -18.8710  -1.7086  -0.3273   0.1258  12.2568  16.1931  19.1174
    19.3787

     occupation numbers 
     1.0000   1.0000   1.0000   1.0000   1.0000   0.0000   0.0000   0.0000
     0.0000

          k = 0.5389-0.3538 0.0000 (  1950 PWs)   bands (ev):

   -40.4048 -18.8901  -1.7959  -0.1098   0.2039  11.8035  16.3593  19.1315
    19.2555

     occupation numbers 
     1.0000   1.0000   1.0000   1.0000   1.0000   0.0000   0.0000   0.0000
     0.0000

          k = 0.5004-0.3810 0.0667 (  1943 PWs)   bands (ev):

   -40.4029 -18.8611  -1.7370  -0.3838   0.1517  12.2669  16.1081  19.1616
    19.2568

     occupation numbers 
     1.0000   1.0000   1.0000   1.0000   1.0000   0.0000   0.0000   0.0000
     0.0000

          k = 0.4619-0.4082 0.1333 (  1935 PWs)   bands (ev):

   -40.4005 -18.8228  -1.6469  -0.7082   0.0474  12.9518  15.8387  19.0531
    19.2571

     occupation numbers 
     1.0000   1.0000   1.0000   1.0000   1.0000   0.0000   0.0000   0.0000
     0.0000

          k = 0.4234-0.4355 0.2000 (  1929 PWs)   bands (ev):

   -40.3981 -18.7815  -1.6303  -0.9239  -0.0854  13.7468  15.6673  18.6217
    19.3752

     occupation numbers 
     1.0000   1.0000   1.0000   1.0000   1.0000   0.0000   0.0000   0.0000
     0.0000

          k = 0.3849-0.4627 0.2667 (  1935 PWs)   bands (ev):

   -40.3962 -18.7445  -1.7969  -0.8934  -0.2127  14.4628  15.7005  18.0590
    19.5195

     occupation numbers 
     1.0000   1.0000   1.0000   1.0000   1.0000   0.0000   0.0000   0.0000
     0.0000

          k = 0.3464-0.4899 0.3333 (  1932 PWs)   bands (ev):

   -40.3949 -18.7184  -2.0039  -0.7556  -0.3034  14.8679  15.9437  17.6292
    19.6965

     occupation numbers 
     1.0000   1.0000   1.0000   1.0000   1.0000   0.0000   0.0000   0.0000
     0.0000

          k = 0.3079-0.5171 0.4000 (  1937 PWs)   bands (ev):

   -40.3946 -18.7080  -2.1297  -0.6443  -0.3375  14.9846  16.0296  17.6464
    19.9267

     occupation numbers 
     1.0000   1.0000   1.0000   1.0000   1.0000   0.0000   0.0000   0.0000
     0.0000

          k = 0.2694-0.5443 0.4667 (  1942 PWs)   bands (ev):

   -40.3953 -18.7152  -2.1362  -0.5916  -0.3294  14.8279  16.0907  17.8317
    20.0930

     occupation numbers 
     1.0000   1.0000   1.0000   1.0000   1.0000   0.0000   0.0000   0.0000
     0.0000

          k = 0.8083-0.1633-0.4667 (  1943 PWs)   bands (ev):

   -40.3968 -18.7388  -2.0234  -0.5949  -0.2952  14.4813  16.2052  17.9344
    19.9419

     occupation numbers 
     1.0000   1.0000   1.0000   1.0000   1.0000   0.0000   0.0000   0.0000
     0.0000

          k = 0.7698-0.1905-0.4000 (  1942 PWs)   bands (ev):

   -40.3990 -18.7743  -1.8225  -0.6645  -0.2049  14.0306  16.1220  18.2159
    19.7454

     occupation numbers 
     1.0000   1.0000   1.0000   1.0000   1.0000   0.0000   0.0000   0.0000
     0.0000

          k = 0.7313-0.2177-0.3333 (  1936 PWs)   bands (ev):

   -40.4014 -18.8154  -1.6162  -0.7268  -0.0661  13.4490  15.9793  18.6866
    19.5917

     occupation numbers 
     1.0000   1.0000   1.0000   1.0000   1.0000   0.0000   0.0000   0.0000
     0.0000

          k = 0.6928-0.2449-0.2667 (  1940 PWs)   bands (ev):

   -40.4036 -18.8547  -1.5474  -0.6359   0.0857  12.7854  15.9880  19.1015
    19.4566

     occupation numbers 
     1.0000   1.0000   1.0000   1.0000   1.0000   0.0000   0.0000   0.0000
     0.0000

          k = 0.6543-0.2722-0.2000 (  1941 PWs)   bands (ev):

   -40.4053 -18.8858  -1.6251  -0.3954   0.2094  12.1802  16.1449  19.2895
    19.3469

     occupation numbers 
     1.0000   1.0000   1.0000   1.0000   1.0000   0.0000   0.0000   0.0000
     0.0000

          k = 0.6158-0.2994-0.1333 (  1946 PWs)   bands (ev):

   -40.4061 -18.9036  -1.7288  -0.1529   0.2645  11.7659  16.3491  19.2389
    19.2878

     occupation numbers 
     1.0000   1.0000   1.0000   1.0000   1.0000   0.0000   0.0000   0.0000
     0.0000

          k = 0.5774-0.3266-0.0667 (  1945 PWs)   bands (ev):

   -40.4059 -18.9051  -1.7933  -0.0195   0.2387  11.6293  16.4561  19.1739
    19.2228

     occupation numbers 
     1.0000   1.0000   1.0000   1.0000   1.0000   0.0000   0.0000   0.0000
     0.0000

          k = 0.5389-0.2722 0.0000 (  1935 PWs)   bands (ev):

   -40.4069 -18.9236  -1.8498   0.1869   0.2882  11.2816  16.6532  19.1297
    19.1421

     occupation numbers 
     1.0000   1.0000   1.0000   1.0000   1.0000   0.0000   0.0000   0.0000
     0.0000

          k = 0.5004-0.2994 0.0667 (  1945 PWs)   bands (ev):

   -40.4059 -18.9051  -1.7933  -0.0195   0.2387  11.6293  16.4561  19.1739
    19.2228

     occupation numbers 
     1.0000   1.0000   1.0000   1.0000   1.0000   0.0000   0.0000   0.0000
     0.0000

          k = 0.4619-0.3266 0.1333 (  1940 PWs)   bands (ev):

   -40.4040 -18.8710  -1.7086  -0.3273   0.1258  12.2568  16.1931  19.1174
    19.3787

     occupation numbers 
     1.0000   1.0000   1.0000   1.0000   1.0000   0.0000   0.0000   0.0000
     0.0000

          k = 0.4234-0.3538 0.2000 (  1941 PWs)   bands (ev):

   -40.4016 -18.8269  -1.6752  -0.5977  -0.0203  13.0500  15.9981  18.8696
    19.5724

     occupation numbers 
     1.0000   1.0000   1.0000   1.0000   1.0000   0.0000   0.0000   0.0000
     0.0000

          k = 0.3849-0.3810 0.2667 (  1937 PWs)   bands (ev):

   -40.3990 -18.7801  -1.7999  -0.6752  -0.1695  13.8548  15.9778  18.4389
    19.7680

     occupation numbers 
     1.0000   1.0000   1.0000   1.0000   1.0000   0.0000   0.0000   0.0000
     0.0000

          k = 0.3464-0.4082 0.3333 (  1943 PWs)   bands (ev):

   -40.3968 -18.7388  -2.0234  -0.5949  -0.2952  14.4813  16.2052  17.9344
    19.9419

     occupation numbers 
     1.0000   1.0000   1.0000   1.0000   1.0000   0.0000   0.0000   0.0000
     0.0000

          k = 0.3079-0.4355 0.4000 (  1949 PWs)   bands (ev):

   -40.3953 -18.7105  -2.2041  -0.4985  -0.3748  14.8381  16.5223  17.5807
    20.0972

     occupation numbers 
     1.0000   1.0000   1.0000   1.0000   1.0000   0.0000   0.0000   0.0000
     0.0000

          k = 0.2694-0.4627 0.4667 (  1946 PWs)   bands (ev):

   -40.3948 -18.7004  -2.2706  -0.4658  -0.3954  14.9588  16.6098  17.5243
    20.2240

     occupation numbers 
     1.0000   1.0000   1.0000   1.0000   1.0000   0.0000   0.0000   0.0000
     0.0000

          k = 0.8083-0.0816-0.4667 (  1949 PWs)   bands (ev):

   -40.3953 -18.7105  -2.2041  -0.4985  -0.3748  14.8381  16.5223  17.5807
    20.0972

     occupation numbers 
     1.0000   1.0000   1.0000   1.0000   1.0000   0.0000   0.0000   0.0000
     0.0000

          k = 0.7698-0.1089-0.4000 (  1943 PWs)   bands (ev):

   -40.3968 -18.7388  -2.0234  -0.5949  -0.2952  14.4813  16.2052  17.9344
    19.9419

     occupation numbers 
     1.0000   1.0000   1.0000   1.0000   1.0000   0.0000   0.0000   0.0000
     0.0000

          k = 0.7313-0.1361-0.3333 (  1937 PWs)   bands (ev):

   -40.3990 -18.7801  -1.7999  -0.6752  -0.1695  13.8548  15.9778  18.4389
    19.7680

     occupation numbers 
     1.0000   1.0000   1.0000   1.0000   1.0000   0.0000   0.0000   0.0000
     0.0000

          k = 0.6928-0.1633-0.2667 (  1941 PWs)   bands (ev):

   -40.4016 -18.8269  -1.6752  -0.5977  -0.0203  13.0500  15.9981  18.8696
    19.5724

     occupation numbers 
     1.0000   1.0000   1.0000   1.0000   1.0000   0.0000   0.0000   0.0000
     0.0000

          k = 0.6543-0.1905-0.2000 (  1940 PWs)   bands (ev):

   -40.4040 -18.8710  -1.7086  -0.3273   0.1258  12.2568  16.1931  19.1174
    19.3787

     occupation numbers 
     1.0000   1.0000   1.0000   1.0000   1.0000   0.0000   0.0000   0.0000
     0.0000

          k = 0.6158-0.2177-0.1333 (  1945 PWs)   bands (ev):

   -40.4059 -18.9051  -1.7933  -0.0195   0.2387  11.6293  16.4561  19.1739
    19.2228

     occupation numbers 
     1.0000   1.0000   1.0000   1.0000   1.0000   0.0000   0.0000   0.0000
     0.0000

          k = 0.5774-0.2449-0.0667 (  1935 PWs)   bands (ev):

   -40.4069 -18.9236  -1.8498   0.1869   0.2882  11.2816  16.6532  19.1297
    19.1421

     occupation numbers 
     1.0000   1.0000   1.0000   1.0000   1.0000   0.0000   0.0000   0.0000
     0.0000

     the Fermi energy is     7.9031 ev

     Writing output data file ./LiF.save/

     init_run     :      0.17s CPU      0.19s WALL (       1 calls)
     electrons    :     55.26s CPU     58.12s WALL (       1 calls)

     Called by init_run:
     wfcinit      :      0.00s CPU      0.00s WALL (       1 calls)
     wfcinit:atom :      0.09s CPU      0.13s WALL (    3376 calls)
     wfcinit:wfcr :      3.95s CPU      4.21s WALL (    3376 calls)
     potinit      :      0.04s CPU      0.06s WALL (       1 calls)
     hinit0       :      0.08s CPU      0.08s WALL (       1 calls)

     Called by electrons:
     c_bands      :     55.21s CPU     57.90s WALL (       1 calls)
     v_of_rho     :      0.01s CPU      0.01s WALL (       1 calls)
     v_h          :      0.00s CPU      0.00s WALL (       1 calls)
     v_xc         :      0.01s CPU      0.01s WALL (       1 calls)
     newd         :      0.00s CPU      0.00s WALL (       1 calls)
     PAW_pot      :      0.03s CPU      0.04s WALL (       1 calls)

     Called by c_bands:
     init_us_2    :      0.11s CPU      0.16s WALL (    3376 calls)
     cegterg      :     46.28s CPU     47.75s WALL (    3378 calls)

     Called by sum_band:

     Called by *egterg:
     h_psi        :     39.25s CPU     39.73s WALL (   41921 calls)
     s_psi        :      0.32s CPU      0.40s WALL (   41921 calls)
     g_psi        :      0.22s CPU      0.26s WALL (   35167 calls)
     cdiaghg      :      6.93s CPU      7.71s WALL (   38543 calls)
     cegterg:over :      1.84s CPU      1.89s WALL (   35167 calls)
     cegterg:upda :      0.53s CPU      0.66s WALL (   35167 calls)
     cegterg:last :      0.41s CPU      0.39s WALL (   10283 calls)

     Called by h_psi:
     h_psi:calbec :      0.57s CPU      0.84s WALL (   41921 calls)
     vloc_psi     :     38.19s CPU     38.28s WALL (   41921 calls)
     add_vuspsi   :      0.39s CPU      0.46s WALL (   41921 calls)

     General routines
     calbec       :      0.54s CPU      0.79s WALL (   41921 calls)
     fft          :      0.00s CPU      0.01s WALL (      23 calls)
     ffts         :      0.00s CPU      0.00s WALL (       2 calls)
     fftw         :     35.80s CPU     35.43s WALL (  624632 calls)
     interpolate  :      0.00s CPU      0.00s WALL (       2 calls)
     davcio       :      0.09s CPU      1.43s WALL (    6752 calls)

     Parallel routines
     fft_scatt_xy :      3.42s CPU      3.91s WALL (  624657 calls)
     fft_scatt_yz :     18.26s CPU     15.03s WALL (  624657 calls)

     PAW routines
     PAW_pot      :      0.03s CPU      0.04s WALL (       1 calls)

     PWSCF        :   1m 2.69s CPU   5m32.87s WALL


   This run was terminated on:   0: 2:53   6Oct2020            

=------------------------------------------------------------------------------=
   JOB DONE.
=------------------------------------------------------------------------------=
