
     Program PWSCF v.6.5 starts on  5Oct2020 at 23:50: 0 

     This program is part of the open-source Quantum ESPRESSO suite
     for quantum simulation of materials; please cite
         "P. Giannozzi et al., J. Phys.:Condens. Matter 21 395502 (2009);
         "P. Giannozzi et al., J. Phys.:Condens. Matter 29 465901 (2017);
          URL http://www.quantum-espresso.org", 
     in publications or presentations arising from this work. More details at
     http://www.quantum-espresso.org/quote

     Parallel version (MPI), running on    16 processors

     MPI processes distributed on     1 nodes
     R & G space division:  proc/nbgrp/npool/nimage =      16
     Waiting for input...
     Reading input from standard input

     Current dimensions of program PWSCF are:
     Max number of different atomic species (ntypx) = 10
     Max number of k-points (npk) =  40000
     Max angular momentum in pseudopotentials (lmaxx) =  3
               file F.pbe-n-kjpaw_psl.1.0.0.UPF: wavefunction(s)  2S 2P renormalized

     Subspace diagonalization in iterative solution of the eigenvalue problem:
     a serial algorithm will be used


     Parallelization info
     --------------------
     sticks:   dense  smooth     PW     G-vecs:    dense   smooth      PW
     Min          77      51     15                 1785      973     168
     Max          78      52     16                 1788      977     172
     Sum        1237     823    253                28571    15593    2733



     bravais-lattice index     =            0
     lattice parameter (alat)  =       5.4564  a.u.
     unit-cell volume          =     114.8712 (a.u.)^3
     number of atoms/cell      =            2
     number of atomic types    =            2
     number of electrons       =        10.00
     number of Kohn-Sham states=            9
     kinetic-energy cutoff     =     100.0000  Ry
     charge density cutoff     =     600.0000  Ry
     convergence threshold     =      1.0E-08
     mixing beta               =       0.7000
     number of iterations used =            8  plain     mixing
     Exchange-correlation= SLA PW PBX PBC
                           (   1   4   3   4   0   0   0)

     celldm(1)=   5.456431  celldm(2)=   0.000000  celldm(3)=   0.000000
     celldm(4)=   0.000000  celldm(5)=   0.000000  celldm(6)=   0.000000

     crystal axes: (cart. coord. in units of alat)
               a(1) = (   0.866025   0.000000   0.500000 )  
               a(2) = (   0.288675   0.816497   0.500000 )  
               a(3) = (   0.000000   0.000000   1.000000 )  

     reciprocal axes: (cart. coord. in units 2 pi/alat)
               b(1) = (  1.154701 -0.408248  0.000000 )  
               b(2) = (  0.000000  1.224745  0.000000 )  
               b(3) = ( -0.577350 -0.408248  1.000000 )  


     PseudoPot. # 1 for F  read from file:
     /scratch/lllang/LiF/pseudos/F.pbe-n-kjpaw_psl.1.0.0.UPF
     MD5 check sum: 66d718ea72839a4268ab2a9540e8cdd4
     Pseudo is Projector augmented-wave + core cor, Zval =  7.0
     Generated using "atomic" code by A. Dal Corso v.6.3
     Shape of augmentation charge: PSQ
     Using radial grid of 1105 points,  4 beta functions with: 
                l(1) =   0
                l(2) =   0
                l(3) =   1
                l(4) =   1
     Q(r) pseudized with 0 coefficients 


     PseudoPot. # 2 for Li read from file:
     /scratch/lllang/LiF/pseudos/Li.pbe-s-kjpaw_psl.1.0.0.UPF
     MD5 check sum: 3974953fb0fea6c4f83fb01d64ffc134
     Pseudo is Projector augmented-wave, Zval =  3.0
     Generated using "atomic" code by A. Dal Corso v.6.3
     Shape of augmentation charge: PSQ
     Using radial grid of 1017 points,  4 beta functions with: 
                l(1) =   0
                l(2) =   0
                l(3) =   1
                l(4) =   1
     Q(r) pseudized with 0 coefficients 


     atomic species   valence    mass     pseudopotential
        F              7.00    18.99840     F ( 1.00)
        Li             3.00     6.94100     Li( 1.00)

     Starting magnetic structure 
     atomic species   magnetization
        F            0.700
        Li           0.000

     No symmetry found



   Cartesian axes

     site n.     atom                  positions (alat units)
         1           Li  tau(   1) = (   0.0000000   0.0000000   0.0000000  )
         2           F   tau(   2) = (   0.5773503   0.4082483   1.0000000  )

     number of k points=   666  Marzari-Vanderbilt smearing, width (Ry)=  0.0050

     Number of k-points >= 100: set verbosity='high' to print them.

     Dense  grid:    28571 G-vectors     FFT dimensions: (  45,  45,  45)

     Smooth grid:    15593 G-vectors     FFT dimensions: (  36,  36,  36)

     Estimated max dynamical RAM per process >      26.37 MB

     Estimated total dynamical RAM >     421.89 MB
     Generating pointlists ...
     new r_m :   0.2917 (alat units)  1.5915 (a.u.) for type    1
     new r_m :   0.2917 (alat units)  1.5915 (a.u.) for type    2

     Initial potential from superposition of free atoms

     starting charge    9.99539, renormalised to   10.00000
     Starting wfcs are    9 randomized atomic wfcs
     Checking if some PAW data can be deallocated... 

     total cpu time spent up to now is       11.0 secs

     Self-consistent Calculation

     iteration #  1     ecut=   100.00 Ry     beta= 0.70
     Davidson diagonalization with overlap
     ethr =  1.00E-02,  avg # of iterations =  3.2

     total cpu time spent up to now is       38.6 secs

     total energy              =     -74.57117683 Ry
     Harris-Foulkes estimate   =     -73.99942394 Ry
     estimated scf accuracy    <       0.61012304 Ry

     total magnetization       =     0.00 Bohr mag/cell
     absolute magnetization    =     0.79 Bohr mag/cell

     iteration #  2     ecut=   100.00 Ry     beta= 0.70
     Davidson diagonalization with overlap
     ethr =  6.10E-03,  avg # of iterations =  1.1

     total cpu time spent up to now is       62.4 secs

     total energy              =     -74.66491565 Ry
     Harris-Foulkes estimate   =     -74.61267646 Ry
     estimated scf accuracy    <       0.09720726 Ry

     total magnetization       =     0.00 Bohr mag/cell
     absolute magnetization    =     0.38 Bohr mag/cell

     iteration #  3     ecut=   100.00 Ry     beta= 0.70
     Davidson diagonalization with overlap
     ethr =  9.72E-04,  avg # of iterations =  1.5

     total cpu time spent up to now is       87.7 secs

     total energy              =     -74.67721182 Ry
     Harris-Foulkes estimate   =     -74.69421534 Ry
     estimated scf accuracy    <       0.04657853 Ry

     total magnetization       =    -0.00 Bohr mag/cell
     absolute magnetization    =     0.12 Bohr mag/cell

     iteration #  4     ecut=   100.00 Ry     beta= 0.70
     Davidson diagonalization with overlap
     ethr =  4.66E-04,  avg # of iterations =  1.5

     total cpu time spent up to now is      112.6 secs

     total energy              =     -74.68743544 Ry
     Harris-Foulkes estimate   =     -74.68701489 Ry
     estimated scf accuracy    <       0.00042456 Ry

     total magnetization       =    -0.00 Bohr mag/cell
     absolute magnetization    =     0.04 Bohr mag/cell

     iteration #  5     ecut=   100.00 Ry     beta= 0.70
     Davidson diagonalization with overlap
     ethr =  4.25E-06,  avg # of iterations =  2.5

     total cpu time spent up to now is      142.3 secs

     total energy              =     -74.68767391 Ry
     Harris-Foulkes estimate   =     -74.68768224 Ry
     estimated scf accuracy    <       0.00004206 Ry

     total magnetization       =    -0.00 Bohr mag/cell
     absolute magnetization    =     0.01 Bohr mag/cell

     iteration #  6     ecut=   100.00 Ry     beta= 0.70
     Davidson diagonalization with overlap
     ethr =  4.21E-07,  avg # of iterations =  1.5

     total cpu time spent up to now is      164.9 secs

     total energy              =     -74.68768462 Ry
     Harris-Foulkes estimate   =     -74.68768445 Ry
     estimated scf accuracy    <       0.00000013 Ry

     total magnetization       =     0.00 Bohr mag/cell
     absolute magnetization    =     0.00 Bohr mag/cell

     iteration #  7     ecut=   100.00 Ry     beta= 0.70
     Davidson diagonalization with overlap
     ethr =  1.33E-09,  avg # of iterations =  2.7

     Magnetic moment per site:
     atom:    1    charge:    2.1463    magn:    0.0000    constr:    0.0000
     atom:    2    charge:    6.6175    magn:   -0.0000    constr:    0.0000

     total cpu time spent up to now is      194.2 secs

     End of self-consistent calculation

     Number of k-points >= 100: set verbosity='high' to print the bands.

     the Fermi energy is     7.9033 ev

!    total energy              =     -74.68768471 Ry
     Harris-Foulkes estimate   =     -74.68768471 Ry
     estimated scf accuracy    <          6.8E-09 Ry

     total all-electron energy =      -215.100417 Ry

     The total energy is the sum of the following terms:

     one-electron contribution =     -27.99085962 Ry
     hartree contribution      =      18.16588838 Ry
     xc contribution           =     -13.37683232 Ry
     ewald contribution        =     -40.39245525 Ry
     one-center paw contrib.   =     -11.09342589 Ry
     smearing contrib. (-TS)   =       0.00000000 Ry

     total magnetization       =    -0.00 Bohr mag/cell
     absolute magnetization    =     0.00 Bohr mag/cell

     convergence has been achieved in   7 iterations

     Writing output data file ./LiF.save/

     init_run     :      3.71s CPU      8.81s WALL (       1 calls)
     electrons    :     85.98s CPU    183.97s WALL (       1 calls)

     Called by init_run:
     wfcinit      :      3.47s CPU      8.01s WALL (       1 calls)
     potinit      :      0.09s CPU      0.24s WALL (       1 calls)
     hinit0       :      0.12s CPU      0.51s WALL (       1 calls)

     Called by electrons:
     c_bands      :     71.52s CPU    152.41s WALL (       7 calls)
     sum_band     :     13.42s CPU     28.58s WALL (       7 calls)
     v_of_rho     :      0.21s CPU      0.47s WALL (       8 calls)
     newd         :      0.10s CPU      0.21s WALL (       8 calls)
     PAW_pot      :      0.61s CPU      1.37s WALL (       8 calls)
     mix_rho      :      0.01s CPU      0.01s WALL (       7 calls)

     Called by c_bands:
     init_us_2    :      0.27s CPU      0.94s WALL (   19980 calls)
     cegterg      :     69.37s CPU    148.25s WALL (    9324 calls)

     Called by sum_band:
     sum_band:bec :      0.00s CPU      0.04s WALL (    9324 calls)
     addusdens    :      0.02s CPU      0.02s WALL (       7 calls)

     Called by *egterg:
     h_psi        :     57.85s CPU    122.81s WALL (   29362 calls)
     s_psi        :      0.09s CPU      0.27s WALL (   29362 calls)
     g_psi        :      0.05s CPU      0.12s WALL (   18706 calls)
     cdiaghg      :      7.45s CPU     18.20s WALL (   28030 calls)

     Called by h_psi:
     h_psi:calbec :      5.18s CPU     11.13s WALL (   29362 calls)
     vloc_psi     :     52.54s CPU    111.22s WALL (   29362 calls)
     add_vuspsi   :      0.09s CPU      0.34s WALL (   29362 calls)

     General routines
     calbec       :      7.34s CPU     15.69s WALL (   38686 calls)
     fft          :      0.15s CPU      0.62s WALL (     194 calls)
     ffts         :      0.01s CPU      0.06s WALL (      30 calls)
     fftw         :     62.79s CPU    132.03s WALL (  512842 calls)
     interpolate  :      0.05s CPU      0.10s WALL (      16 calls)

     Parallel routines
     fft_scatt_xy :      1.13s CPU      3.42s WALL (  513066 calls)
     fft_scatt_yz :     56.94s CPU    115.21s WALL (  513066 calls)

     PWSCF        :   2m 1.88s CPU   7m19.85s WALL


   This run was terminated on:  23:57:20   5Oct2020            

=------------------------------------------------------------------------------=
   JOB DONE.
=------------------------------------------------------------------------------=
