 vasp.5.4.4.18Apr17-6-g9f103f2a35 (build Sep 25 2018 16:35:25) complex          
  
 executed on             LinuxIFC date 2019.01.29  20:18:48
 running on    5 total cores
 distrk:  each k-point on    5 cores,    1 groups
 distr:  one band on NCORES_PER_BAND=   1 cores,    5 groups


--------------------------------------------------------------------------------------------------------


 INCAR:
 POTCAR:    PAW Sr_sv 10Feb1998                   
 POTCAR:    PAW V 07Aug2001                       
 POTCAR:    PAW O 22Mar2012                       

 ----------------------------------------------------------------------------- 
|                                                                             |
|           W    W    AA    RRRRR   N    N  II  N    N   GGGG   !!!           |
|           W    W   A  A   R    R  NN   N  II  NN   N  G    G  !!!           |
|           W    W  A    A  R    R  N N  N  II  N N  N  G       !!!           |
|           W WW W  AAAAAA  RRRRR   N  N N  II  N  N N  G  GGG   !            |
|           WW  WW  A    A  R   R   N   NN  II  N   NN  G    G                |
|           W    W  A    A  R    R  N    N  II  N    N   GGGG   !!!           |
|                                                                             |
|      For optimal performance we recommend to set                            |
|        NCORE= 4 - approx SQRT( number of cores)                             |
|      NCORE specifies how many cores store one orbital (NPAR=cpu/NCORE).     |
|      This setting can  greatly improve the performance of VASP for DFT.     |
|      The default,   NCORE=1            might be grossly inefficient         |
|      on modern multi-core architectures or massively parallel machines.     |
|      Do your own testing !!!!                                               |
|      Unfortunately you need to use the default for GW and RPA calculations. |
|      (for HF NCORE is supported but not extensively tested yet)             |
|                                                                             |
 ----------------------------------------------------------------------------- 

 POTCAR:    PAW Sr_sv 10Feb1998                   
   VRHFIN =Sr: 3s3p4s                                                           
   LEXCH  = CA                                                                  
   EATOM  =   845.5689 eV,   62.1476 Ry                                         
                                                                                
   TITEL  = PAW Sr_sv 10Feb1998                                                 
   LULTRA =        F    use ultrasoft PP ?                                      
   IUNSCR =        1    unscreen: 0-lin 1-nonlin 2-no                           
   RPACOR =    2.200    partial core radius                                     
   POMASS =   87.620; ZVAL   =   10.000    mass and valenz                      
   RCORE  =    2.500    outmost cutoff radius                                   
   RWIGS  =    4.040; RWIGS  =    2.138    wigner-seitz radius (au A)           
   ENMAX  =  226.327; ENMIN  =  169.745 eV                                      
   RCLOC  =    2.201    cutoff for local pot                                    
   LCOR   =        T    correct aug charges                                     
   LPAW   =        T    paw PP                                                  
   EAUG   =  366.804                                                            
   DEXC   =    0.000                                                            
   RMAX   =    2.547    core radius for proj-oper                               
   RAUG   =    1.300    factor for augmentation sphere                          
   RDEP   =    2.562    radius for radial grids                                 
   RDEPT  =    2.145    core radius for aug-charge                              
                                                                                
   Atomic configuration                                                         
   10 entries                                                                   
     n  l   j            E        occ.                                          
     1  0  0.50    -15851.8828   2.0000                                         
     2  0  0.50     -2148.9480   2.0000                                         
     2  1  1.50     -1912.9353   6.0000                                         
     3  0  0.50      -331.8462   2.0000                                         
     3  1  1.50      -255.3856   6.0000                                         
     3  2  2.50      -128.2784  10.0000                                         
     4  0  0.50       -40.8303   2.0000                                         
     5  0  0.50        -3.6422   1.9990                                         
     4  1  1.50       -22.8493   6.0000                                         
     4  2  1.50        -1.4198   0.0010                                         
   Description                                                                  
     l       E           TYP  RCUT    TYP  RCUT                                 
     0    -40.8303494     23  2.500                                             
     0     -3.6421860     23  2.500                                             
     1    -22.8492718     23  2.500                                             
     1    -24.2098544     23  2.500                                             
     2     -1.4197899     23  2.500                                             
     2      0.0045700     23  2.500                                             
  local pseudopotential read in
  partial core-charges read in
  partial kinetic energy density read in
  atomic valenz-charges read in
  non local Contribution for L=           0  read in
    real space projection operators read in
  non local Contribution for L=           0  read in
    real space projection operators read in
  non local Contribution for L=           1  read in
    real space projection operators read in
  non local Contribution for L=           1  read in
    real space projection operators read in
  non local Contribution for L=           2  read in
    real space projection operators read in
  non local Contribution for L=           2  read in
    real space projection operators read in
    PAW grid and wavefunctions read in
 
   number of l-projection  operators is LMAX  =           6
   number of lm-projection operators is LMMAX =          18
 
 POTCAR:    PAW V 07Aug2001                       
   VRHFIN =V: d4 s1                                                             
   LEXCH  = CA                                                                  
   EATOM  =   172.4520 eV,   12.6749 Ry                                         
                                                                                
   TITEL  = PAW V 07Aug2001                                                     
   LULTRA =        F    use ultrasoft PP ?                                      
   IUNSCR =        1    unscreen: 0-lin 1-nonlin 2-no                           
   RPACOR =    2.000    partial core radius                                     
   POMASS =   50.941; ZVAL   =    5.000    mass and valenz                      
   RCORE  =    2.700    outmost cutoff radius                                   
   RWIGS  =    2.500; RWIGS  =    1.323    wigner-seitz radius (au A)           
   ENMAX  =  192.706; ENMIN  =  144.529 eV                                      
   RCLOC  =    1.779    cutoff for local pot                                    
   LCOR   =        T    correct aug charges                                     
   LPAW   =        T    paw PP                                                  
   EAUG   =  358.662                                                            
   DEXC   =    0.000                                                            
   RMAX   =    2.768    core radius for proj-oper                               
   RAUG   =    1.300    factor for augmentation sphere                          
   RDEP   =    2.762    radius for radial grids                                 
   RDEPT  =    2.240    core radius for aug-charge                              
                                                                                
   Atomic configuration                                                         
    9 entries                                                                   
     n  l   j            E        occ.                                          
     1  0  0.50     -5334.6266   2.0000                                         
     2  0  0.50      -595.8619   2.0000                                         
     2  1  1.50      -498.2253   6.0000                                         
     3  0  0.50       -66.0397   2.0000                                         
     3  1  1.50       -40.3979   6.0000                                         
     3  2  2.50        -2.6339   4.0000                                         
     4  0  0.50        -4.0392   1.0000                                         
     4  1  0.50        -4.0817   0.0000                                         
     4  3  2.50        -1.3606   0.0000                                         
   Description                                                                  
     l       E           TYP  RCUT    TYP  RCUT                                 
     2     -2.6338511     23  2.700                                             
     2     -3.9944337     23  2.700                                             
     0     -4.0392463     23  2.700                                             
     0     27.2116520     23  2.700                                             
     1     -4.0817478     23  2.700                                             
     1     27.2116520     23  2.700                                             
  local pseudopotential read in
  partial core-charges read in
  partial kinetic energy density read in
  atomic valenz-charges read in
  non local Contribution for L=           2  read in
    real space projection operators read in
  non local Contribution for L=           2  read in
    real space projection operators read in
  non local Contribution for L=           0  read in
    real space projection operators read in
  non local Contribution for L=           0  read in
    real space projection operators read in
  non local Contribution for L=           1  read in
    real space projection operators read in
  non local Contribution for L=           1  read in
    real space projection operators read in
    PAW grid and wavefunctions read in
 
   number of l-projection  operators is LMAX  =           6
   number of lm-projection operators is LMMAX =          18
 
 POTCAR:    PAW O 22Mar2012                       
   VRHFIN =O: s2p4                                                              
   LEXCH  = CA                                                                  
   EATOM  =   431.4380 eV,   31.7098 Ry                                         
                                                                                
   TITEL  = PAW O 22Mar2012                                                     
   LULTRA =        F    use ultrasoft PP ?                                      
   IUNSCR =        1    unscreen: 0-lin 1-nonlin 2-no                           
   RPACOR =    1.200    partial core radius                                     
   POMASS =   16.000; ZVAL   =    6.000    mass and valenz                      
   RCORE  =    1.520    outmost cutoff radius                                   
   RWIGS  =    1.550; RWIGS  =    0.820    wigner-seitz radius (au A)           
   ENMAX  =  400.000; ENMIN  =  300.000 eV                                      
   ICORE  =        2    local potential                                         
   LCOR   =        T    correct aug charges                                     
   LPAW   =        T    paw PP                                                  
   EAUG   =  605.392                                                            
   DEXC   =    0.000                                                            
   RMAX   =    1.553    core radius for proj-oper                               
   RAUG   =    1.300    factor for augmentation sphere                          
   RDEP   =    1.550    radius for radial grids                                 
   RDEPT  =    1.329    core radius for aug-charge                              
                                                                                
   Atomic configuration                                                         
    4 entries                                                                   
     n  l   j            E        occ.                                          
     1  0  0.50      -510.4605   2.0000                                         
     2  0  0.50       -23.7367   2.0000                                         
     2  1  0.50        -9.1995   4.0000                                         
     3  2  1.50        -9.5241   0.0000                                         
   Description                                                                  
     l       E           TYP  RCUT    TYP  RCUT                                 
     0    -23.7366993     23  1.200                                             
     0     -9.5240782     23  1.200                                             
     1     -9.1994509     23  1.520                                             
     1      8.1634956     23  1.520                                             
     2     -9.5240782      7  1.500                                             
  local pseudopotential read in
  partial core-charges read in
  partial kinetic energy density read in
  kinetic energy density of atom read in
  atomic valenz-charges read in
  non local Contribution for L=           0  read in
    real space projection operators read in
  non local Contribution for L=           0  read in
    real space projection operators read in
  non local Contribution for L=           1  read in
    real space projection operators read in
  non local Contribution for L=           1  read in
    real space projection operators read in
    PAW grid and wavefunctions read in
 
   number of l-projection  operators is LMAX  =           4
   number of lm-projection operators is LMMAX =           8
 

 ----------------------------------------------------------------------------- 
|                                                                             |
|  ADVICE TO THIS USER RUNNING 'VASP/VAMP'   (HEAR YOUR MASTER'S VOICE ...):  |
|                                                                             |
|      You enforced a specific xc-type in the INCAR file,                     |
|      a different type was found on the POTCAR file                          |
|          I HOPE YOU KNOW, WHAT YOU ARE  DOING                               |
|                                                                             |
 ----------------------------------------------------------------------------- 

  PAW Sr_sv 10Feb1998                   :
 energy of atom  1       EATOM= -845.5689
 kinetic energy error for atom=    0.0006 (will be added to EATOM!!)
  PAW V 07Aug2001                       :
 energy of atom  2       EATOM= -172.4520
 kinetic energy error for atom=    0.0002 (will be added to EATOM!!)
  PAW O 22Mar2012                       :
 energy of atom  3       EATOM= -431.4380
 kinetic energy error for atom=    0.0165 (will be added to EATOM!!)
 
 
 POSCAR: Sr V O                                  
  positions in direct lattice
  No initial velocities read in
 exchange correlation table for  LEXCH =       14
   RHO(1)=    0.500       N(1)  =     2000
   RHO(2)=  100.500       N(2)  =     4000
 


--------------------------------------------------------------------------------------------------------


 ion  position               nearest neighbor table
   1  0.000  0.000  0.000-   3 2.72   4 2.72   5 2.72   4 2.72   5 2.72   3 2.72   5 2.72   5 2.72
                             3 2.72   4 2.72   4 2.72   3 2.72   2 3.33   2 3.33   2 3.33   2 3.33
   2  0.500  0.500  0.500-   3 1.92   4 1.92   5 1.92   3 1.92   4 1.92   5 1.92   1 3.33   1 3.33
                             1 3.33   1 3.33   1 3.33   1 3.33   1 3.33   1 3.33
   3  0.500  0.500  0.000-   2 1.92   2 1.92   1 2.72   1 2.72   1 2.72   1 2.72
   4  0.500  0.000  0.500-   2 1.92   2 1.92   1 2.72   1 2.72   1 2.72   1 2.72
   5  0.000  0.500  0.500-   2 1.92   2 1.92   1 2.72   1 2.72   1 2.72   1 2.72
 
  LATTYP: Found a simple cubic cell.
 ALAT       =     3.8465200000
  
  Lattice vectors:
  
 A1 = (   3.8465200000,   0.0000000000,   0.0000000000)
 A2 = (   0.0000000000,   3.8465200000,   0.0000000000)
 A3 = (   0.0000000000,   0.0000000000,   3.8465200000)


Analysis of symmetry for initial positions (statically):
=====================================================================
 Subroutine PRICEL returns:
 Original cell was already a primitive cell.
 

 Routine SETGRP: Setting up the symmetry group for a 
 simple cubic supercell.


 Subroutine GETGRP returns: Found 48 space group operations
 (whereof 48 operations were pure point group operations)
 out of a pool of 48 trial point group operations.


The static configuration has the point symmetry O_h .


Analysis of symmetry for dynamics (positions and initial velocities):
=====================================================================
 Subroutine PRICEL returns:
 Original cell was already a primitive cell.
 

 Routine SETGRP: Setting up the symmetry group for a 
 simple cubic supercell.


 Subroutine GETGRP returns: Found 48 space group operations
 (whereof 48 operations were pure point group operations)
 out of a pool of 48 trial point group operations.


The dynamic configuration has the point symmetry O_h .


Analysis of structural, dynamic, and magnetic symmetry:
=====================================================================
 Subroutine PRICEL returns:
 Original cell was already a primitive cell.
 

 Routine SETGRP: Setting up the symmetry group for a 
 simple cubic supercell.


 Subroutine GETGRP returns: Found 16 space group operations
 (whereof 16 operations were pure point group operations)
 out of a pool of 48 trial point group operations.


The magnetic configuration has the point symmetry D_4h.


 Subroutine INISYM returns: Found 16 space group operations
 (whereof 16 operations are pure point group operations),
 and found     1 'primitive' translations

 
 
 KPOINTS: KPOINTS generated by PyProcar           
  interpolating k-points between supplied coordinates
  k-points in reciprocal lattice
Space group operators:
 irot       det(A)        alpha          n_x          n_y          n_z        tau_x        tau_y        tau_z
    1     1.000000     0.000000     1.000000     0.000000     0.000000     0.000000     0.000000     0.000000
    2    -1.000000     0.000000     1.000000     0.000000     0.000000     0.000000     0.000000     0.000000
    3     1.000000    90.000000     0.000000     0.000000    -1.000000     0.000000     0.000000     0.000000
    4    -1.000000    90.000000     0.000000     0.000000    -1.000000     0.000000     0.000000     0.000000
    5     1.000000   180.000000     0.000000     0.000000     1.000000     0.000000     0.000000     0.000000
    6    -1.000000   180.000000     0.000000     0.000000     1.000000     0.000000     0.000000     0.000000
    7     1.000000    90.000000     0.000000     0.000000     1.000000     0.000000     0.000000     0.000000
    8    -1.000000    90.000000     0.000000     0.000000     1.000000     0.000000     0.000000     0.000000
    9     1.000000   180.000000     1.000000     0.000000     0.000000     0.000000     0.000000     0.000000
   10    -1.000000   180.000000     1.000000     0.000000     0.000000     0.000000     0.000000     0.000000
   11     1.000000   180.000000     0.707107     0.707107     0.000000     0.000000     0.000000     0.000000
   12    -1.000000   180.000000     0.707107     0.707107     0.000000     0.000000     0.000000     0.000000
   13     1.000000   180.000000     0.000000     1.000000     0.000000     0.000000     0.000000     0.000000
   14    -1.000000   180.000000     0.000000     1.000000     0.000000     0.000000     0.000000     0.000000
   15     1.000000   180.000000     0.707107    -0.707107     0.000000     0.000000     0.000000     0.000000
   16    -1.000000   180.000000     0.707107    -0.707107     0.000000     0.000000     0.000000     0.000000

 ----------------------------------------------------------------------------- 
|                                                                             |
|           W    W    AA    RRRRR   N    N  II  N    N   GGGG   !!!           |
|           W    W   A  A   R    R  NN   N  II  NN   N  G    G  !!!           |
|           W    W  A    A  R    R  N N  N  II  N N  N  G       !!!           |
|           W WW W  AAAAAA  RRRRR   N  N N  II  N  N N  G  GGG   !            |
|           WW  WW  A    A  R   R   N   NN  II  N   NN  G    G                |
|           W    W  A    A  R    R  N    N  II  N    N   GGGG   !!!           |
|                                                                             |
|      The number of bands has been changed from the values supplied          |
|      in the INCAR file. This is a result of running the parallel version.   |
|      The orbitals not found in the WAVECAR file will be initialized with    |
|      random numbers, which is usually adequate. For correlated              |
|      calculations, however, you should redo the groundstate calculation.    |
|      I found NBANDS    =       46  now  NBANDS  =      50                   |
|                                                                             |
 ----------------------------------------------------------------------------- 



--------------------------------------------------------------------------------------------------------




 Dimension of arrays:
   k-points           NKPTS =    160   k-points in BZ     NKDIM =    160   number of bands    NBANDS=     50
   number of dos      NEDOS =    301   number of ions     NIONS =      5
   non local maximal  LDIM  =      6   non local SUM 2l+1 LMDIM =     18
   total plane-waves  NPLWV =  13824
   max r-space proj   IRMAX =      1   max aug-charges    IRDMAX= 118030
   dimension x,y,z NGX =    24 NGY =   24 NGZ =   24
   dimension x,y,z NGXF=    48 NGYF=   48 NGZF=   48
   support grid    NGXF=    96 NGYF=   96 NGZF=   96
   ions per type =               1   1   3
   NGX,Y,Z   is equivalent  to a cutoff of  10.37, 10.37, 10.37 a.u.
   NGXF,Y,Z  is equivalent  to a cutoff of  20.75, 20.75, 20.75 a.u.

 SYSTEM =  SrVO3 	                                 
 POSCAR =  Sr V O                                  

 Startparameter for this run:
   NWRITE =      2    write-flag & timer
   PREC   = normal    normal or accurate (medium, high low for compatibility)
   ISTART =      1    job   : 0-new  1-cont  2-samecut
   ICHARG =     11    charge: 1-file 2-atom 10-const
   ISPIN  =      2    spin polarized calculation?
   LNONCOLLINEAR =      F non collinear calculations
   LSORBIT =      F    spin-orbit coupling
   INIWAV =      1    electr: 0-lowe 1-rand  2-diag
   LASPH  =      F    aspherical Exc in radial PAW
   METAGGA=      F    non-selfconsistent MetaGGA calc.

 Electronic Relaxation 1
   ENCUT  =  600.0 eV  44.10 Ry    6.64 a.u.   7.68  7.68  7.68*2*pi/ulx,y,z
   ENINI  =  600.0     initial cutoff
   ENAUG  =  605.4 eV  augmentation charge cutoff
   NELM   =     60;   NELMIN=  2; NELMDL=  0     # of ELM steps 
   EDIFF  = 0.1E-03   stopping-criterion for ELM
   LREAL  =      F    real-space projection
   NLSPLINE    = F    spline interpolate recip. space projectors
   LCOMPAT=      F    compatible to vasp.4.4
   GGA_COMPAT  = T    GGA compatible to vasp.4.4-vasp.4.6
   LMAXPAW     = -100 max onsite density
   LMAXMIX     =    4 max onsite mixed and CHGCAR
   VOSKOWN=      0    Vosko Wilk Nusair interpolation
   ROPT   =    0.00000   0.00000   0.00000
 Ionic relaxation
   EDIFFG = 0.1E-02   stopping-criterion for IOM
   NSW    =      0    number of steps for IOM
   NBLOCK =      1;   KBLOCK =      1    inner block; outer block 
   IBRION =     -1    ionic relax: 0-MD 1-quasi-New 2-CG
   NFREE  =      0    steps in history (QN), initial steepest desc. (CG)
   ISIF   =      2    stress and relaxation
   IWAVPR =     10    prediction:  0-non 1-charg 2-wave 3-comb
   ISYM   =      2    0-nonsym 1-usesym 2-fastsym
   LCORR  =      T    Harris-Foulkes like correction to forces

   POTIM  = 0.5000    time-step for ionic-motion
   TEIN   =    0.0    initial temperature
   TEBEG  =    0.0;   TEEND  =   0.0 temperature during run
   SMASS  =  -3.00    Nose mass-parameter (am)
   estimated Nose-frequenzy (Omega)   =  0.10E-29 period in steps =****** mass=  -0.338E-27a.u.
   SCALEE = 1.0000    scale energy and forces
   NPACO  =    256;   APACO  = 16.0  distance and # of slots for P.C.
   PSTRESS=    0.0 pullay stress

  Mass of Ions in am
   POMASS =  87.62 50.94 16.00
  Ionic Valenz
   ZVAL   =  10.00  5.00  6.00
  Atomic Wigner-Seitz radii
   RWIGS  =  -1.00 -1.00 -1.00
  virtual crystal weights 
   VCA    =   1.00  1.00  1.00
   NELECT =      33.0000    total number of electrons
   NUPDOWN=      -1.0000    fix difference up-down

 DOS related values:
   EMIN   =  10.00;   EMAX   =-10.00  energy-range for DOS
   EFERMI =   0.00
   ISMEAR =     0;   SIGMA  =   0.20  broadening in eV -4-tet -1-fermi 0-gaus

 Electronic relaxation 2 (details)
   IALGO  =     48    algorithm
   LDIAG  =      T    sub-space diagonalisation (order eigenvalues)
   LSUBROT=      F    optimize rotation matrix (better conditioning)
   TURBO    =      0    0=normal 1=particle mesh
   IRESTART =      0    0=no restart 2=restart with 2 vectors
   NREBOOT  =      0    no. of reboots
   NMIN     =      0    reboot dimension
   EREF     =   0.00    reference energy to select bands
   IMIX   =      4    mixing-type and parameters
     AMIX     =   0.40;   BMIX     =  1.00
     AMIX_MAG =   1.60;   BMIX_MAG =  1.00
     AMIN     =   0.10
     WC   =   100.;   INIMIX=   1;  MIXPRE=   1;  MAXMIX= -45

 Intra band minimization:
   WEIMIN = 0.0000     energy-eigenvalue tresh-hold
   EBREAK =  0.50E-06  absolut break condition
   DEPER  =   0.30     relativ break condition  

   TIME   =   0.40     timestep for ELM

  volume/ion in A,a.u.               =      11.38        76.81
  Fermi-wavevector in a.u.,A,eV,Ry     =   1.365143  2.579746 25.356027  1.863615
  Thomas-Fermi vector in A             =   2.491397
 
 Write flags
   LWAVE        =      T    write WAVECAR
   LDOWNSAMPLE  =      F    k-point downsampling of WAVECAR
   LCHARG       =      T    write CHGCAR
   LVTOT        =      F    write LOCPOT, total local potential
   LVHAR        =      F    write LOCPOT, Hartree potential only
   LELF         =      F    write electronic localiz. function (ELF)
   LORBIT       =     11    0 simple, 1 ext, 2 COOP (PROOUT), +10 PAW based schemes


 Dipole corrections
   LMONO  =      F    monopole corrections only (constant potential shift)
   LDIPOL =      F    correct potential (dipole corrections)
   IDIPOL =      0    1-x, 2-y, 3-z, 4-all directions 
   EPSILON=  1.0000000 bulk dielectric constant

 Exchange correlation treatment:
   GGA     =    PS    GGA type
   LEXCH   =    14    internal setting for exchange type
   VOSKOWN=      0    Vosko Wilk Nusair interpolation
   LHFCALC =     F    Hartree Fock is set to
   LHFONE  =     F    Hartree Fock one center treatment
   AEXX    =    0.0000 exact exchange contribution

 Linear response parameters
   LEPSILON=     F    determine dielectric tensor
   LRPA    =     F    only Hartree local field effects (RPA)
   LNABLA  =     F    use nabla operator in PAW spheres
   LVEL    =     F    velocity operator in full k-point grid
   LINTERFAST=   F  fast interpolation
   KINTER  =     0    interpolate to denser k-point grid
   CSHIFT  =0.1000    complex shift for real part using Kramers Kronig
   OMEGAMAX=  -1.0    maximum frequency
   DEG_THRESHOLD= 0.2000000E-02 threshold for treating states as degnerate
   RTIME   =   -0.100 relaxation time in fs
  (WPLASMAI=    0.000 imaginary part of plasma frequency in eV, 0.658/RTIME)
   DFIELD  = 0.0000000 0.0000000 0.0000000 field for delta impulse in time
 
 Orbital magnetization related:
   ORBITALMAG=     F  switch on orbital magnetization
   LCHIMAG   =     F  perturbation theory with respect to B field
   DQ        =  0.001000  dq finite difference perturbation B field
   LLRAUG    =     F  two centre corrections for induced B field



--------------------------------------------------------------------------------------------------------


 Static calculation
 charge density and potential remain constant during run
 spin polarized calculation
 RMM-DIIS sequential band-by-band
 perform sub-space diagonalisation
    before iterative eigenvector-optimisation
 no mixing
 using additional bands           33
 reciprocal scheme for non local part
 use partial core corrections
 calculate Harris-corrections to forces 
   (improved forces if not selfconsistent)
 use gradient corrections 
 WARNING: stress and forces are not correct
  (second derivative of E(xc) not defined)
 use of overlap-Matrix (Vanderbilt PP)
 Gauss-broadening in eV      SIGMA  =   0.20


--------------------------------------------------------------------------------------------------------


  energy-cutoff  :      600.00
  volume of cell :       56.91
      direct lattice vectors                 reciprocal lattice vectors
     3.846520000  0.000000000  0.000000000     0.259975250  0.000000000  0.000000000
     0.000000000  3.846520000  0.000000000     0.000000000  0.259975250  0.000000000
     0.000000000  0.000000000  3.846520000     0.000000000  0.000000000  0.259975250

  length of vectors
     3.846520000  3.846520000  3.846520000     0.259975250  0.259975250  0.259975250


 
 old parameters found on file WAVECAR:
  energy-cutoff  :      600.00
  volume of cell :       56.91
      direct lattice vectors                 reciprocal lattice vectors
     3.846520000  0.000000000  0.000000000     0.259975250  0.000000000  0.000000000
     0.000000000  3.846520000  0.000000000     0.000000000  0.259975250  0.000000000
     0.000000000  0.000000000  3.846520000     0.000000000  0.000000000  0.259975250

  length of vectors

 
 k-points in units of 2pi/SCALE and weight: KPOINTS generated by PyProcar           
   0.00000000  0.00000000  0.00000000       0.006
   0.01282051  0.00000000  0.00000000       0.006
   0.02564103  0.00000000  0.00000000       0.006
   0.03846154  0.00000000  0.00000000       0.006
   0.05128205  0.00000000  0.00000000       0.006
   0.06410256  0.00000000  0.00000000       0.006
   0.07692308  0.00000000  0.00000000       0.006
   0.08974359  0.00000000  0.00000000       0.006
   0.10256410  0.00000000  0.00000000       0.006
   0.11538462  0.00000000  0.00000000       0.006
   0.12820513  0.00000000  0.00000000       0.006
   0.14102564  0.00000000  0.00000000       0.006
   0.15384615  0.00000000  0.00000000       0.006
   0.16666667  0.00000000  0.00000000       0.006
   0.17948718  0.00000000  0.00000000       0.006
   0.19230769  0.00000000  0.00000000       0.006
   0.20512821  0.00000000  0.00000000       0.006
   0.21794872  0.00000000  0.00000000       0.006
   0.23076923  0.00000000  0.00000000       0.006
   0.24358974  0.00000000  0.00000000       0.006
   0.25641026  0.00000000  0.00000000       0.006
   0.26923077  0.00000000  0.00000000       0.006
   0.28205128  0.00000000  0.00000000       0.006
   0.29487179  0.00000000  0.00000000       0.006
   0.30769231  0.00000000  0.00000000       0.006
   0.32051282  0.00000000  0.00000000       0.006
   0.33333333  0.00000000  0.00000000       0.006
   0.34615385  0.00000000  0.00000000       0.006
   0.35897436  0.00000000  0.00000000       0.006
   0.37179487  0.00000000  0.00000000       0.006
   0.38461538  0.00000000  0.00000000       0.006
   0.39743590  0.00000000  0.00000000       0.006
   0.41025641  0.00000000  0.00000000       0.006
   0.42307692  0.00000000  0.00000000       0.006
   0.43589744  0.00000000  0.00000000       0.006
   0.44871795  0.00000000  0.00000000       0.006
   0.46153846  0.00000000  0.00000000       0.006
   0.47435897  0.00000000  0.00000000       0.006
   0.48717949  0.00000000  0.00000000       0.006
   0.50000000  0.00000000  0.00000000       0.006
   0.50000000  0.00000000  0.00000000       0.006
   0.50000000  0.01282051  0.00000000       0.006
   0.50000000  0.02564103  0.00000000       0.006
   0.50000000  0.03846154  0.00000000       0.006
   0.50000000  0.05128205  0.00000000       0.006
   0.50000000  0.06410256  0.00000000       0.006
   0.50000000  0.07692308  0.00000000       0.006
   0.50000000  0.08974359  0.00000000       0.006
   0.50000000  0.10256410  0.00000000       0.006
   0.50000000  0.11538462  0.00000000       0.006
   0.50000000  0.12820513  0.00000000       0.006
   0.50000000  0.14102564  0.00000000       0.006
   0.50000000  0.15384615  0.00000000       0.006
   0.50000000  0.16666667  0.00000000       0.006
   0.50000000  0.17948718  0.00000000       0.006
   0.50000000  0.19230769  0.00000000       0.006
   0.50000000  0.20512821  0.00000000       0.006
   0.50000000  0.21794872  0.00000000       0.006
   0.50000000  0.23076923  0.00000000       0.006
   0.50000000  0.24358974  0.00000000       0.006
   0.50000000  0.25641026  0.00000000       0.006
   0.50000000  0.26923077  0.00000000       0.006
   0.50000000  0.28205128  0.00000000       0.006
   0.50000000  0.29487179  0.00000000       0.006
   0.50000000  0.30769231  0.00000000       0.006
   0.50000000  0.32051282  0.00000000       0.006
   0.50000000  0.33333333  0.00000000       0.006
   0.50000000  0.34615385  0.00000000       0.006
   0.50000000  0.35897436  0.00000000       0.006
   0.50000000  0.37179487  0.00000000       0.006
   0.50000000  0.38461538  0.00000000       0.006
   0.50000000  0.39743590  0.00000000       0.006
   0.50000000  0.41025641  0.00000000       0.006
   0.50000000  0.42307692  0.00000000       0.006
   0.50000000  0.43589744  0.00000000       0.006
   0.50000000  0.44871795  0.00000000       0.006
   0.50000000  0.46153846  0.00000000       0.006
   0.50000000  0.47435897  0.00000000       0.006
   0.50000000  0.48717949  0.00000000       0.006
   0.50000000  0.50000000  0.00000000       0.006
   0.50000000  0.50000000  0.00000000       0.006
   0.48717949  0.48717949  0.00000000       0.006
   0.47435897  0.47435897  0.00000000       0.006
   0.46153846  0.46153846  0.00000000       0.006
   0.44871795  0.44871795  0.00000000       0.006
   0.43589744  0.43589744  0.00000000       0.006
   0.42307692  0.42307692  0.00000000       0.006
   0.41025641  0.41025641  0.00000000       0.006
   0.39743590  0.39743590  0.00000000       0.006
   0.38461538  0.38461538  0.00000000       0.006
   0.37179487  0.37179487  0.00000000       0.006
   0.35897436  0.35897436  0.00000000       0.006
   0.34615385  0.34615385  0.00000000       0.006
   0.33333333  0.33333333  0.00000000       0.006
   0.32051282  0.32051282  0.00000000       0.006
   0.30769231  0.30769231  0.00000000       0.006
   0.29487179  0.29487179  0.00000000       0.006
   0.28205128  0.28205128  0.00000000       0.006
   0.26923077  0.26923077  0.00000000       0.006
   0.25641026  0.25641026  0.00000000       0.006
   0.24358974  0.24358974  0.00000000       0.006
   0.23076923  0.23076923  0.00000000       0.006
   0.21794872  0.21794872  0.00000000       0.006
   0.20512821  0.20512821  0.00000000       0.006
   0.19230769  0.19230769  0.00000000       0.006
   0.17948718  0.17948718  0.00000000       0.006
   0.16666667  0.16666667  0.00000000       0.006
   0.15384615  0.15384615  0.00000000       0.006
   0.14102564  0.14102564  0.00000000       0.006
   0.12820513  0.12820513  0.00000000       0.006
   0.11538462  0.11538462  0.00000000       0.006
   0.10256410  0.10256410  0.00000000       0.006
   0.08974359  0.08974359  0.00000000       0.006
   0.07692308  0.07692308  0.00000000       0.006
   0.06410256  0.06410256  0.00000000       0.006
   0.05128205  0.05128205  0.00000000       0.006
   0.03846154  0.03846154  0.00000000       0.006
   0.02564103  0.02564103  0.00000000       0.006
   0.01282051  0.01282051  0.00000000       0.006
   0.00000000  0.00000000  0.00000000       0.006
   0.00000000  0.00000000  0.00000000       0.006
   0.01282051  0.01282051  0.01282051       0.006
   0.02564103  0.02564103  0.02564103       0.006
   0.03846154  0.03846154  0.03846154       0.006
   0.05128205  0.05128205  0.05128205       0.006
   0.06410256  0.06410256  0.06410256       0.006
   0.07692308  0.07692308  0.07692308       0.006
   0.08974359  0.08974359  0.08974359       0.006
   0.10256410  0.10256410  0.10256410       0.006
   0.11538462  0.11538462  0.11538462       0.006
   0.12820513  0.12820513  0.12820513       0.006
   0.14102564  0.14102564  0.14102564       0.006
   0.15384615  0.15384615  0.15384615       0.006
   0.16666667  0.16666667  0.16666667       0.006
   0.17948718  0.17948718  0.17948718       0.006
   0.19230769  0.19230769  0.19230769       0.006
   0.20512821  0.20512821  0.20512821       0.006
   0.21794872  0.21794872  0.21794872       0.006
   0.23076923  0.23076923  0.23076923       0.006
   0.24358974  0.24358974  0.24358974       0.006
   0.25641026  0.25641026  0.25641026       0.006
   0.26923077  0.26923077  0.26923077       0.006
   0.28205128  0.28205128  0.28205128       0.006
   0.29487179  0.29487179  0.29487179       0.006
   0.30769231  0.30769231  0.30769231       0.006
   0.32051282  0.32051282  0.32051282       0.006
   0.33333333  0.33333333  0.33333333       0.006
   0.34615385  0.34615385  0.34615385       0.006
   0.35897436  0.35897436  0.35897436       0.006
   0.37179487  0.37179487  0.37179487       0.006
   0.38461538  0.38461538  0.38461538       0.006
   0.39743590  0.39743590  0.39743590       0.006
   0.41025641  0.41025641  0.41025641       0.006
   0.42307692  0.42307692  0.42307692       0.006
   0.43589744  0.43589744  0.43589744       0.006
   0.44871795  0.44871795  0.44871795       0.006
   0.46153846  0.46153846  0.46153846       0.006
   0.47435897  0.47435897  0.47435897       0.006
   0.48717949  0.48717949  0.48717949       0.006
   0.50000000  0.50000000  0.50000000       0.006
 
 k-points in reciprocal lattice and weights: KPOINTS generated by PyProcar           
   0.00000000  0.00000000  0.00000000       0.006
   0.01282051  0.00000000  0.00000000       0.006
   0.02564103  0.00000000  0.00000000       0.006
   0.03846154  0.00000000  0.00000000       0.006
   0.05128205  0.00000000  0.00000000       0.006
   0.06410256  0.00000000  0.00000000       0.006
   0.07692308  0.00000000  0.00000000       0.006
   0.08974359  0.00000000  0.00000000       0.006
   0.10256410  0.00000000  0.00000000       0.006
   0.11538462  0.00000000  0.00000000       0.006
   0.12820513  0.00000000  0.00000000       0.006
   0.14102564  0.00000000  0.00000000       0.006
   0.15384615  0.00000000  0.00000000       0.006
   0.16666667  0.00000000  0.00000000       0.006
   0.17948718  0.00000000  0.00000000       0.006
   0.19230769  0.00000000  0.00000000       0.006
   0.20512821  0.00000000  0.00000000       0.006
   0.21794872  0.00000000  0.00000000       0.006
   0.23076923  0.00000000  0.00000000       0.006
   0.24358974  0.00000000  0.00000000       0.006
   0.25641026  0.00000000  0.00000000       0.006
   0.26923077  0.00000000  0.00000000       0.006
   0.28205128  0.00000000  0.00000000       0.006
   0.29487179  0.00000000  0.00000000       0.006
   0.30769231  0.00000000  0.00000000       0.006
   0.32051282  0.00000000  0.00000000       0.006
   0.33333333  0.00000000  0.00000000       0.006
   0.34615385  0.00000000  0.00000000       0.006
   0.35897436  0.00000000  0.00000000       0.006
   0.37179487  0.00000000  0.00000000       0.006
   0.38461538  0.00000000  0.00000000       0.006
   0.39743590  0.00000000  0.00000000       0.006
   0.41025641  0.00000000  0.00000000       0.006
   0.42307692  0.00000000  0.00000000       0.006
   0.43589744  0.00000000  0.00000000       0.006
   0.44871795  0.00000000  0.00000000       0.006
   0.46153846  0.00000000  0.00000000       0.006
   0.47435897  0.00000000  0.00000000       0.006
   0.48717949  0.00000000  0.00000000       0.006
   0.50000000  0.00000000  0.00000000       0.006
   0.50000000  0.00000000  0.00000000       0.006
   0.50000000  0.01282051  0.00000000       0.006
   0.50000000  0.02564103  0.00000000       0.006
   0.50000000  0.03846154  0.00000000       0.006
   0.50000000  0.05128205  0.00000000       0.006
   0.50000000  0.06410256  0.00000000       0.006
   0.50000000  0.07692308  0.00000000       0.006
   0.50000000  0.08974359  0.00000000       0.006
   0.50000000  0.10256410  0.00000000       0.006
   0.50000000  0.11538462  0.00000000       0.006
   0.50000000  0.12820513  0.00000000       0.006
   0.50000000  0.14102564  0.00000000       0.006
   0.50000000  0.15384615  0.00000000       0.006
   0.50000000  0.16666667  0.00000000       0.006
   0.50000000  0.17948718  0.00000000       0.006
   0.50000000  0.19230769  0.00000000       0.006
   0.50000000  0.20512821  0.00000000       0.006
   0.50000000  0.21794872  0.00000000       0.006
   0.50000000  0.23076923  0.00000000       0.006
   0.50000000  0.24358974  0.00000000       0.006
   0.50000000  0.25641026  0.00000000       0.006
   0.50000000  0.26923077  0.00000000       0.006
   0.50000000  0.28205128  0.00000000       0.006
   0.50000000  0.29487179  0.00000000       0.006
   0.50000000  0.30769231  0.00000000       0.006
   0.50000000  0.32051282  0.00000000       0.006
   0.50000000  0.33333333  0.00000000       0.006
   0.50000000  0.34615385  0.00000000       0.006
   0.50000000  0.35897436  0.00000000       0.006
   0.50000000  0.37179487  0.00000000       0.006
   0.50000000  0.38461538  0.00000000       0.006
   0.50000000  0.39743590  0.00000000       0.006
   0.50000000  0.41025641  0.00000000       0.006
   0.50000000  0.42307692  0.00000000       0.006
   0.50000000  0.43589744  0.00000000       0.006
   0.50000000  0.44871795  0.00000000       0.006
   0.50000000  0.46153846  0.00000000       0.006
   0.50000000  0.47435897  0.00000000       0.006
   0.50000000  0.48717949  0.00000000       0.006
   0.50000000  0.50000000  0.00000000       0.006
   0.50000000  0.50000000  0.00000000       0.006
   0.48717949  0.48717949  0.00000000       0.006
   0.47435897  0.47435897  0.00000000       0.006
   0.46153846  0.46153846  0.00000000       0.006
   0.44871795  0.44871795  0.00000000       0.006
   0.43589744  0.43589744  0.00000000       0.006
   0.42307692  0.42307692  0.00000000       0.006
   0.41025641  0.41025641  0.00000000       0.006
   0.39743590  0.39743590  0.00000000       0.006
   0.38461538  0.38461538  0.00000000       0.006
   0.37179487  0.37179487  0.00000000       0.006
   0.35897436  0.35897436  0.00000000       0.006
   0.34615385  0.34615385  0.00000000       0.006
   0.33333333  0.33333333  0.00000000       0.006
   0.32051282  0.32051282  0.00000000       0.006
   0.30769231  0.30769231  0.00000000       0.006
   0.29487179  0.29487179  0.00000000       0.006
   0.28205128  0.28205128  0.00000000       0.006
   0.26923077  0.26923077  0.00000000       0.006
   0.25641026  0.25641026  0.00000000       0.006
   0.24358974  0.24358974  0.00000000       0.006
   0.23076923  0.23076923  0.00000000       0.006
   0.21794872  0.21794872  0.00000000       0.006
   0.20512821  0.20512821  0.00000000       0.006
   0.19230769  0.19230769  0.00000000       0.006
   0.17948718  0.17948718  0.00000000       0.006
   0.16666667  0.16666667  0.00000000       0.006
   0.15384615  0.15384615  0.00000000       0.006
   0.14102564  0.14102564  0.00000000       0.006
   0.12820513  0.12820513  0.00000000       0.006
   0.11538462  0.11538462  0.00000000       0.006
   0.10256410  0.10256410  0.00000000       0.006
   0.08974359  0.08974359  0.00000000       0.006
   0.07692308  0.07692308  0.00000000       0.006
   0.06410256  0.06410256  0.00000000       0.006
   0.05128205  0.05128205  0.00000000       0.006
   0.03846154  0.03846154  0.00000000       0.006
   0.02564103  0.02564103  0.00000000       0.006
   0.01282051  0.01282051  0.00000000       0.006
   0.00000000  0.00000000  0.00000000       0.006
   0.00000000  0.00000000  0.00000000       0.006
   0.01282051  0.01282051  0.01282051       0.006
   0.02564103  0.02564103  0.02564103       0.006
   0.03846154  0.03846154  0.03846154       0.006
   0.05128205  0.05128205  0.05128205       0.006
   0.06410256  0.06410256  0.06410256       0.006
   0.07692308  0.07692308  0.07692308       0.006
   0.08974359  0.08974359  0.08974359       0.006
   0.10256410  0.10256410  0.10256410       0.006
   0.11538462  0.11538462  0.11538462       0.006
   0.12820513  0.12820513  0.12820513       0.006
   0.14102564  0.14102564  0.14102564       0.006
   0.15384615  0.15384615  0.15384615       0.006
   0.16666667  0.16666667  0.16666667       0.006
   0.17948718  0.17948718  0.17948718       0.006
   0.19230769  0.19230769  0.19230769       0.006
   0.20512821  0.20512821  0.20512821       0.006
   0.21794872  0.21794872  0.21794872       0.006
   0.23076923  0.23076923  0.23076923       0.006
   0.24358974  0.24358974  0.24358974       0.006
   0.25641026  0.25641026  0.25641026       0.006
   0.26923077  0.26923077  0.26923077       0.006
   0.28205128  0.28205128  0.28205128       0.006
   0.29487179  0.29487179  0.29487179       0.006
   0.30769231  0.30769231  0.30769231       0.006
   0.32051282  0.32051282  0.32051282       0.006
   0.33333333  0.33333333  0.33333333       0.006
   0.34615385  0.34615385  0.34615385       0.006
   0.35897436  0.35897436  0.35897436       0.006
   0.37179487  0.37179487  0.37179487       0.006
   0.38461538  0.38461538  0.38461538       0.006
   0.39743590  0.39743590  0.39743590       0.006
   0.41025641  0.41025641  0.41025641       0.006
   0.42307692  0.42307692  0.42307692       0.006
   0.43589744  0.43589744  0.43589744       0.006
   0.44871795  0.44871795  0.44871795       0.006
   0.46153846  0.46153846  0.46153846       0.006
   0.47435897  0.47435897  0.47435897       0.006
   0.48717949  0.48717949  0.48717949       0.006
   0.50000000  0.50000000  0.50000000       0.006
 
 position of ions in fractional coordinates (direct lattice) 
   0.00000000  0.00000000  0.00000000
   0.50000000  0.50000000  0.50000000
   0.50000000  0.50000000  0.00000000
   0.50000000  0.00000000  0.50000000
   0.00000000  0.50000000  0.50000000
 
 position of ions in cartesian coordinates  (Angst):
   0.00000000  0.00000000  0.00000000
   1.92326000  1.92326000  1.92326000
   1.92326000  1.92326000  0.00000000
   1.92326000  0.00000000  1.92326000
   0.00000000  1.92326000  1.92326000
 


--------------------------------------------------------------------------------------------------------


 k-point  1 :   0.0000 0.0000 0.0000  plane waves:    1935
 k-point  2 :   0.0128 0.0000 0.0000  plane waves:    1899
 k-point  3 :   0.0256 0.0000 0.0000  plane waves:    1899
 k-point  4 :   0.0385 0.0000 0.0000  plane waves:    1899
 k-point  5 :   0.0513 0.0000 0.0000  plane waves:    1899
 k-point  6 :   0.0641 0.0000 0.0000  plane waves:    1899
 k-point  7 :   0.0769 0.0000 0.0000  plane waves:    1895
 k-point  8 :   0.0897 0.0000 0.0000  plane waves:    1895
 k-point  9 :   0.1026 0.0000 0.0000  plane waves:    1895
 k-point 10 :   0.1154 0.0000 0.0000  plane waves:    1895
 k-point 11 :   0.1282 0.0000 0.0000  plane waves:    1895
 k-point 12 :   0.1410 0.0000 0.0000  plane waves:    1895
 k-point 13 :   0.1538 0.0000 0.0000  plane waves:    1891
 k-point 14 :   0.1667 0.0000 0.0000  plane waves:    1887
 k-point 15 :   0.1795 0.0000 0.0000  plane waves:    1899
 k-point 16 :   0.1923 0.0000 0.0000  plane waves:    1899
 k-point 17 :   0.2051 0.0000 0.0000  plane waves:    1899
 k-point 18 :   0.2179 0.0000 0.0000  plane waves:    1907
 k-point 19 :   0.2308 0.0000 0.0000  plane waves:    1907
 k-point 20 :   0.2436 0.0000 0.0000  plane waves:    1907
 k-point 21 :   0.2564 0.0000 0.0000  plane waves:    1907
 k-point 22 :   0.2692 0.0000 0.0000  plane waves:    1907
 k-point 23 :   0.2821 0.0000 0.0000  plane waves:    1907
 k-point 24 :   0.2949 0.0000 0.0000  plane waves:    1907
 k-point 25 :   0.3077 0.0000 0.0000  plane waves:    1915
 k-point 26 :   0.3205 0.0000 0.0000  plane waves:    1916
 k-point 27 :   0.3333 0.0000 0.0000  plane waves:    1916
 k-point 28 :   0.3462 0.0000 0.0000  plane waves:    1916
 k-point 29 :   0.3590 0.0000 0.0000  plane waves:    1916
 k-point 30 :   0.3718 0.0000 0.0000  plane waves:    1908
 k-point 31 :   0.3846 0.0000 0.0000  plane waves:    1912
 k-point 32 :   0.3974 0.0000 0.0000  plane waves:    1912
 k-point 33 :   0.4103 0.0000 0.0000  plane waves:    1908
 k-point 34 :   0.4231 0.0000 0.0000  plane waves:    1904
 k-point 35 :   0.4359 0.0000 0.0000  plane waves:    1904
 k-point 36 :   0.4487 0.0000 0.0000  plane waves:    1908
 k-point 37 :   0.4615 0.0000 0.0000  plane waves:    1904
 k-point 38 :   0.4744 0.0000 0.0000  plane waves:    1904
 k-point 39 :   0.4872 0.0000 0.0000  plane waves:    1888
 k-point 40 :   0.5000 0.0000 0.0000  plane waves:    1888
 k-point 41 :   0.5000 0.0000 0.0000  plane waves:    1888
 k-point 42 :   0.5000 0.0128 0.0000  plane waves:    1888
 k-point 43 :   0.5000 0.0256 0.0000  plane waves:    1896
 k-point 44 :   0.5000 0.0385 0.0000  plane waves:    1900
 k-point 45 :   0.5000 0.0513 0.0000  plane waves:    1900
 k-point 46 :   0.5000 0.0641 0.0000  plane waves:    1900
 k-point 47 :   0.5000 0.0769 0.0000  plane waves:    1900
 k-point 48 :   0.5000 0.0897 0.0000  plane waves:    1904
 k-point 49 :   0.5000 0.1026 0.0000  plane waves:    1898
 k-point 50 :   0.5000 0.1154 0.0000  plane waves:    1902
 k-point 51 :   0.5000 0.1282 0.0000  plane waves:    1902
 k-point 52 :   0.5000 0.1410 0.0000  plane waves:    1902
 k-point 53 :   0.5000 0.1538 0.0000  plane waves:    1894
 k-point 54 :   0.5000 0.1667 0.0000  plane waves:    1896
 k-point 55 :   0.5000 0.1795 0.0000  plane waves:    1896
 k-point 56 :   0.5000 0.1923 0.0000  plane waves:    1900
 k-point 57 :   0.5000 0.2051 0.0000  plane waves:    1896
 k-point 58 :   0.5000 0.2179 0.0000  plane waves:    1904
 k-point 59 :   0.5000 0.2308 0.0000  plane waves:    1910
 k-point 60 :   0.5000 0.2436 0.0000  plane waves:    1914
 k-point 61 :   0.5000 0.2564 0.0000  plane waves:    1914
 k-point 62 :   0.5000 0.2692 0.0000  plane waves:    1908
 k-point 63 :   0.5000 0.2821 0.0000  plane waves:    1896
 k-point 64 :   0.5000 0.2949 0.0000  plane waves:    1900
 k-point 65 :   0.5000 0.3077 0.0000  plane waves:    1900
 k-point 66 :   0.5000 0.3205 0.0000  plane waves:    1900
 k-point 67 :   0.5000 0.3333 0.0000  plane waves:    1896
 k-point 68 :   0.5000 0.3462 0.0000  plane waves:    1908
 k-point 69 :   0.5000 0.3590 0.0000  plane waves:    1908
 k-point 70 :   0.5000 0.3718 0.0000  plane waves:    1910
 k-point 71 :   0.5000 0.3846 0.0000  plane waves:    1914
 k-point 72 :   0.5000 0.3974 0.0000  plane waves:    1910
 k-point 73 :   0.5000 0.4103 0.0000  plane waves:    1910
 k-point 74 :   0.5000 0.4231 0.0000  plane waves:    1910
 k-point 75 :   0.5000 0.4359 0.0000  plane waves:    1918
 k-point 76 :   0.5000 0.4487 0.0000  plane waves:    1918
 k-point 77 :   0.5000 0.4615 0.0000  plane waves:    1926
 k-point 78 :   0.5000 0.4744 0.0000  plane waves:    1924
 k-point 79 :   0.5000 0.4872 0.0000  plane waves:    1924
 k-point 80 :   0.5000 0.5000 0.0000  plane waves:    1924
 k-point 81 :   0.5000 0.5000 0.0000  plane waves:    1924
 k-point 82 :   0.4872 0.4872 0.0000  plane waves:    1924
 k-point 83 :   0.4744 0.4744 0.0000  plane waves:    1928
 k-point 84 :   0.4615 0.4615 0.0000  plane waves:    1918
 k-point 85 :   0.4487 0.4487 0.0000  plane waves:    1912
 k-point 86 :   0.4359 0.4359 0.0000  plane waves:    1912
 k-point 87 :   0.4231 0.4231 0.0000  plane waves:    1913
 k-point 88 :   0.4103 0.4103 0.0000  plane waves:    1901
 k-point 89 :   0.3974 0.3974 0.0000  plane waves:    1901
 k-point 90 :   0.3846 0.3846 0.0000  plane waves:    1901
 k-point 91 :   0.3718 0.3718 0.0000  plane waves:    1897
 k-point 92 :   0.3590 0.3590 0.0000  plane waves:    1895
 k-point 93 :   0.3462 0.3462 0.0000  plane waves:    1899
 k-point 94 :   0.3333 0.3333 0.0000  plane waves:    1903
 k-point 95 :   0.3205 0.3205 0.0000  plane waves:    1899
 k-point 96 :   0.3077 0.3077 0.0000  plane waves:    1887
 k-point 97 :   0.2949 0.2949 0.0000  plane waves:    1891
 k-point 98 :   0.2821 0.2821 0.0000  plane waves:    1895
 k-point 99 :   0.2692 0.2692 0.0000  plane waves:    1897
 k-point ** :   0.2564 0.2564 0.0000  plane waves:    1893
 k-point ** :   0.2436 0.2436 0.0000  plane waves:    1895
 k-point ** :   0.2308 0.2308 0.0000  plane waves:    1901
 k-point ** :   0.2179 0.2179 0.0000  plane waves:    1897
 k-point ** :   0.2051 0.2051 0.0000  plane waves:    1893
 k-point ** :   0.1923 0.1923 0.0000  plane waves:    1897
 k-point ** :   0.1795 0.1795 0.0000  plane waves:    1901
 k-point ** :   0.1667 0.1667 0.0000  plane waves:    1893
 k-point ** :   0.1538 0.1538 0.0000  plane waves:    1897
 k-point ** :   0.1410 0.1410 0.0000  plane waves:    1893
 k-point ** :   0.1282 0.1282 0.0000  plane waves:    1889
 k-point ** :   0.1154 0.1154 0.0000  plane waves:    1893
 k-point ** :   0.1026 0.1026 0.0000  plane waves:    1897
 k-point ** :   0.0897 0.0897 0.0000  plane waves:    1895
 k-point ** :   0.0769 0.0769 0.0000  plane waves:    1895
 k-point ** :   0.0641 0.0641 0.0000  plane waves:    1899
 k-point ** :   0.0513 0.0513 0.0000  plane waves:    1899
 k-point ** :   0.0385 0.0385 0.0000  plane waves:    1901
 k-point ** :   0.0256 0.0256 0.0000  plane waves:    1901
 k-point ** :   0.0128 0.0128 0.0000  plane waves:    1901
 k-point ** :   0.0000 0.0000 0.0000  plane waves:    1935
 k-point ** :   0.0000 0.0000 0.0000  plane waves:    1935
 k-point ** :   0.0128 0.0128 0.0128  plane waves:    1899
 k-point ** :   0.0256 0.0256 0.0256  plane waves:    1899
 k-point ** :   0.0385 0.0385 0.0385  plane waves:    1899
 k-point ** :   0.0513 0.0513 0.0513  plane waves:    1893
 k-point ** :   0.0641 0.0641 0.0641  plane waves:    1893
 k-point ** :   0.0769 0.0769 0.0769  plane waves:    1899
 k-point ** :   0.0897 0.0897 0.0897  plane waves:    1896
 k-point ** :   0.1026 0.1026 0.1026  plane waves:    1899
 k-point ** :   0.1154 0.1154 0.1154  plane waves:    1899
 k-point ** :   0.1282 0.1282 0.1282  plane waves:    1899
 k-point ** :   0.1410 0.1410 0.1410  plane waves:    1893
 k-point ** :   0.1538 0.1538 0.1538  plane waves:    1905
 k-point ** :   0.1667 0.1667 0.1667  plane waves:    1905
 k-point ** :   0.1795 0.1795 0.1795  plane waves:    1905
 k-point ** :   0.1923 0.1923 0.1923  plane waves:    1893
 k-point ** :   0.2051 0.2051 0.2051  plane waves:    1893
 k-point ** :   0.2179 0.2179 0.2179  plane waves:    1899
 k-point ** :   0.2308 0.2308 0.2308  plane waves:    1899
 k-point ** :   0.2436 0.2436 0.2436  plane waves:    1899
 k-point ** :   0.2564 0.2564 0.2564  plane waves:    1902
 k-point ** :   0.2692 0.2692 0.2692  plane waves:    1902
 k-point ** :   0.2821 0.2821 0.2821  plane waves:    1902
 k-point ** :   0.2949 0.2949 0.2949  plane waves:    1902
 k-point ** :   0.3077 0.3077 0.3077  plane waves:    1899
 k-point ** :   0.3205 0.3205 0.3205  plane waves:    1890
 k-point ** :   0.3333 0.3333 0.3333  plane waves:    1896
 k-point ** :   0.3462 0.3462 0.3462  plane waves:    1884
 k-point ** :   0.3590 0.3590 0.3590  plane waves:    1893
 k-point ** :   0.3718 0.3718 0.3718  plane waves:    1896
 k-point ** :   0.3846 0.3846 0.3846  plane waves:    1884
 k-point ** :   0.3974 0.3974 0.3974  plane waves:    1884
 k-point ** :   0.4103 0.4103 0.4103  plane waves:    1896
 k-point ** :   0.4231 0.4231 0.4231  plane waves:    1890
 k-point ** :   0.4359 0.4359 0.4359  plane waves:    1880
 k-point ** :   0.4487 0.4487 0.4487  plane waves:    1880
 k-point ** :   0.4615 0.4615 0.4615  plane waves:    1880
 k-point ** :   0.4744 0.4744 0.4744  plane waves:    1880
 k-point ** :   0.4872 0.4872 0.4872  plane waves:    1904
 k-point ** :   0.5000 0.5000 0.5000  plane waves:    1904

 maximum and minimum number of plane-waves per node :      1935     1880

 maximum number of plane-waves:      1935
 maximum index in each direction: 
   IXMAX=    7   IYMAX=    7   IZMAX=    7
   IXMIN=   -8   IYMIN=   -8   IZMIN=   -8


 serial   3D FFT for wavefunctions
 parallel 3D FFT for charge:
    minimum data exchange during FFTs selected (reduces bandwidth)


 total amount of memory used by VASP MPI-rank0   272875. kBytes
=======================================================================

   base      :      30000. kBytes
   nonl-proj :     133902. kBytes
   fftplans  :       3454. kBytes
   grid      :       3220. kBytes
   one-center:        155. kBytes
   wavefun   :     102144. kBytes
 
     INWAV:  cpu time    1.3264: real time    1.3266
 initial charge density was supplied:
 number of electron      33.0000001 magnetization       0.0017685
 keeping initial charge density in first step


--------------------------------------------------------------------------------------------------------


 Maximum index for augmentation-charges        24360 (set IRDMAX)


--------------------------------------------------------------------------------------------------------


 First call to EWALD:  gamma=   0.461
 Maximum number of real-space cells 3x 3x 3
 Maximum number of reciprocal cells 3x 3x 3

    FEWALD:  cpu time    0.0018: real time    0.0019


--------------------------------------- Iteration      1(   1)  ---------------------------------------


    POTLOK:  cpu time    0.0373: real time    0.0376
    SETDIJ:  cpu time    0.0401: real time    0.0401
    EDDIAG:  cpu time    2.4277: real time    2.4281
  RMM-DIIS:  cpu time   10.5651: real time   10.5663
    ORTHCH:  cpu time    0.4415: real time    0.4415
       DOS:  cpu time    0.0095: real time    0.0095
    --------------------------------------------
      LOOP:  cpu time   13.5211: real time   13.5232

 eigenvalue-minimisations  : 48820
 total energy-change (2. order) :-0.3503579E+02  (-0.1753457E+02)
 number of electron      33.0000001 magnetization       0.0017685
 augmentation part       33.0000001 magnetization       0.0017685

 Free energy of the ion-electron system (eV)
  ---------------------------------------------------
  alpha Z        PSCENC =       180.95685896
  Ewald energy   TEWEN  =     -2047.90029510
  -Hartree energ DENC   =      -423.61879154
  -exchange      EXHF   =         0.00000000
  -V(xc)+E(xc)   XCENC  =        77.78582194
  PAW double counting   =      3876.93840252    -3825.66456711
  entropy T*S    EENTRO =        -0.01637743
  eigenvalues    EBANDS =      -180.16951913
  atomic energy  EATOM  =      2306.65267270
  Solvation  Ediel_sol  =         0.00000000
  ---------------------------------------------------
  free energy    TOTEN  =       -35.03579420 eV

  energy without entropy =      -35.01941678  energy(sigma->0) =      -35.02760549


--------------------------------------------------------------------------------------------------------




--------------------------------------- Iteration      1(   2)  ---------------------------------------


    EDDIAG:  cpu time    2.3950: real time    2.3952
  RMM-DIIS:  cpu time   10.3075: real time   10.3088
    ORTHCH:  cpu time    0.4271: real time    0.4272
       DOS:  cpu time    0.0090: real time    0.0090
    --------------------------------------------
      LOOP:  cpu time   13.1385: real time   13.1402

 eigenvalue-minimisations  : 47811
 total energy-change (2. order) :-0.2550675E+01  (-0.8538670E+00)
 number of electron      33.0000001 magnetization       0.0017685
 augmentation part       33.0000001 magnetization       0.0017685

 Free energy of the ion-electron system (eV)
  ---------------------------------------------------
  alpha Z        PSCENC =       180.95685896
  Ewald energy   TEWEN  =     -2047.90029510
  -Hartree energ DENC   =      -423.61879154
  -exchange      EXHF   =         0.00000000
  -V(xc)+E(xc)   XCENC  =        77.78582194
  PAW double counting   =      3876.93840252    -3825.66456711
  entropy T*S    EENTRO =        -0.05904139
  eigenvalues    EBANDS =      -182.67752987
  atomic energy  EATOM  =      2306.65267270
  Solvation  Ediel_sol  =         0.00000000
  ---------------------------------------------------
  free energy    TOTEN  =       -37.58646891 eV

  energy without entropy =      -37.52742752  energy(sigma->0) =      -37.55694822


--------------------------------------------------------------------------------------------------------




--------------------------------------- Iteration      1(   3)  ---------------------------------------


    EDDIAG:  cpu time    2.3884: real time    2.3886
  RMM-DIIS:  cpu time   10.7669: real time   10.7681
    ORTHCH:  cpu time    0.4291: real time    0.4293
       DOS:  cpu time    0.0092: real time    0.0092
    --------------------------------------------
      LOOP:  cpu time   13.5935: real time   13.5952

 eigenvalue-minimisations  : 50087
 total energy-change (2. order) :-0.2165265E+00  (-0.1199875E+00)
 number of electron      33.0000001 magnetization       0.0017685
 augmentation part       33.0000001 magnetization       0.0017685

 Free energy of the ion-electron system (eV)
  ---------------------------------------------------
  alpha Z        PSCENC =       180.95685896
  Ewald energy   TEWEN  =     -2047.90029510
  -Hartree energ DENC   =      -423.61879154
  -exchange      EXHF   =         0.00000000
  -V(xc)+E(xc)   XCENC  =        77.78582194
  PAW double counting   =      3876.93840252    -3825.66456711
  entropy T*S    EENTRO =        -0.05970562
  eigenvalues    EBANDS =      -182.89339212
  atomic energy  EATOM  =      2306.65267270
  Solvation  Ediel_sol  =         0.00000000
  ---------------------------------------------------
  free energy    TOTEN  =       -37.80299539 eV

  energy without entropy =      -37.74328977  energy(sigma->0) =      -37.77314258


--------------------------------------------------------------------------------------------------------




--------------------------------------- Iteration      1(   4)  ---------------------------------------


    EDDIAG:  cpu time    2.3891: real time    2.3894
  RMM-DIIS:  cpu time   11.4141: real time   11.4155
    ORTHCH:  cpu time    0.4538: real time    0.4538
       DOS:  cpu time    0.0093: real time    0.0093
    --------------------------------------------
      LOOP:  cpu time   14.2663: real time   14.2680

 eigenvalue-minimisations  : 53218
 total energy-change (2. order) :-0.2979932E-01  (-0.2647077E-01)
 number of electron      33.0000001 magnetization       0.0017685
 augmentation part       33.0000001 magnetization       0.0017685

 Free energy of the ion-electron system (eV)
  ---------------------------------------------------
  alpha Z        PSCENC =       180.95685896
  Ewald energy   TEWEN  =     -2047.90029510
  -Hartree energ DENC   =      -423.61879154
  -exchange      EXHF   =         0.00000000
  -V(xc)+E(xc)   XCENC  =        77.78582194
  PAW double counting   =      3876.93840252    -3825.66456711
  entropy T*S    EENTRO =        -0.05966269
  eigenvalues    EBANDS =      -182.92323437
  atomic energy  EATOM  =      2306.65267270
  Solvation  Ediel_sol  =         0.00000000
  ---------------------------------------------------
  free energy    TOTEN  =       -37.83279471 eV

  energy without entropy =      -37.77313202  energy(sigma->0) =      -37.80296337


--------------------------------------------------------------------------------------------------------




--------------------------------------- Iteration      1(   5)  ---------------------------------------


    EDDIAG:  cpu time    2.4018: real time    2.4021
WARNING in EDDRMM: call to ZHEGV failed, returncode =   6  3      7
  RMM-DIIS:  cpu time   11.0849: real time   11.0863
    ORTHCH:  cpu time    0.4210: real time    0.4210
       DOS:  cpu time    0.0093: real time    0.0093
    --------------------------------------------
      LOOP:  cpu time   13.9169: real time   13.9187

 eigenvalue-minimisations  : 51921
 total energy-change (2. order) :-0.4959811E-02  (-0.4429149E-02)
 number of electron      33.0000001 magnetization       0.0017685
 augmentation part       33.0000001 magnetization       0.0017685

 Free energy of the ion-electron system (eV)
  ---------------------------------------------------
  alpha Z        PSCENC =       180.95685896
  Ewald energy   TEWEN  =     -2047.90029510
  -Hartree energ DENC   =      -423.61879154
  -exchange      EXHF   =         0.00000000
  -V(xc)+E(xc)   XCENC  =        77.78582194
  PAW double counting   =      3876.93840252    -3825.66456711
  entropy T*S    EENTRO =        -0.05965833
  eigenvalues    EBANDS =      -182.92819854
  atomic energy  EATOM  =      2306.65267270
  Solvation  Ediel_sol  =         0.00000000
  ---------------------------------------------------
  free energy    TOTEN  =       -37.83775452 eV

  energy without entropy =      -37.77809619  energy(sigma->0) =      -37.80792536


--------------------------------------------------------------------------------------------------------




--------------------------------------- Iteration      1(   6)  ---------------------------------------


    EDDIAG:  cpu time    2.3884: real time    2.3887
  RMM-DIIS:  cpu time   10.3428: real time   10.3440
    ORTHCH:  cpu time    0.4213: real time    0.4214
       DOS:  cpu time    0.0079: real time    0.0079
    --------------------------------------------
      LOOP:  cpu time   13.1605: real time   13.1620

 eigenvalue-minimisations  : 46960
 total energy-change (2. order) :-0.1743352E-02  (-0.1223310E-02)
 number of electron      33.0000001 magnetization       0.0017685
 augmentation part       33.0000001 magnetization       0.0017685

 Free energy of the ion-electron system (eV)
  ---------------------------------------------------
  alpha Z        PSCENC =       180.95685896
  Ewald energy   TEWEN  =     -2047.90029510
  -Hartree energ DENC   =      -423.61879154
  -exchange      EXHF   =         0.00000000
  -V(xc)+E(xc)   XCENC  =        77.78582194
  PAW double counting   =      3876.93840252    -3825.66456711
  entropy T*S    EENTRO =        -0.05965634
  eigenvalues    EBANDS =      -182.92994388
  atomic energy  EATOM  =      2306.65267270
  Solvation  Ediel_sol  =         0.00000000
  ---------------------------------------------------
  free energy    TOTEN  =       -37.83949787 eV

  energy without entropy =      -37.77984153  energy(sigma->0) =      -37.80966970


--------------------------------------------------------------------------------------------------------




--------------------------------------- Iteration      1(   7)  ---------------------------------------


    EDDIAG:  cpu time    2.3875: real time    2.3878
  RMM-DIIS:  cpu time    9.4441: real time    9.4453
    ORTHCH:  cpu time    0.4513: real time    0.4514
       DOS:  cpu time    0.0095: real time    0.0095
    --------------------------------------------
      LOOP:  cpu time   12.2924: real time   12.2940

 eigenvalue-minimisations  : 42370
 total energy-change (2. order) :-0.5708784E-03  (-0.3950817E-03)
 number of electron      33.0000001 magnetization       0.0017685
 augmentation part       33.0000001 magnetization       0.0017685

 Free energy of the ion-electron system (eV)
  ---------------------------------------------------
  alpha Z        PSCENC =       180.95685896
  Ewald energy   TEWEN  =     -2047.90029510
  -Hartree energ DENC   =      -423.61879154
  -exchange      EXHF   =         0.00000000
  -V(xc)+E(xc)   XCENC  =        77.78582194
  PAW double counting   =      3876.93840252    -3825.66456711
  entropy T*S    EENTRO =        -0.05965574
  eigenvalues    EBANDS =      -182.93051536
  atomic energy  EATOM  =      2306.65267270
  Solvation  Ediel_sol  =         0.00000000
  ---------------------------------------------------
  free energy    TOTEN  =       -37.84006875 eV

  energy without entropy =      -37.78041301  energy(sigma->0) =      -37.81024088


--------------------------------------------------------------------------------------------------------




--------------------------------------- Iteration      1(   8)  ---------------------------------------


    EDDIAG:  cpu time    2.4631: real time    2.4635
  RMM-DIIS:  cpu time    8.8824: real time    8.8835
    ORTHCH:  cpu time    0.4209: real time    0.4210
       DOS:  cpu time    0.0091: real time    0.0091
    --------------------------------------------
      LOOP:  cpu time   11.7756: real time   11.7770

 eigenvalue-minimisations  : 38464
 total energy-change (2. order) :-0.1841251E-03  (-0.1297987E-03)
 number of electron      33.0000001 magnetization       0.0017685
 augmentation part       33.0000001 magnetization       0.0017685

 Free energy of the ion-electron system (eV)
  ---------------------------------------------------
  alpha Z        PSCENC =       180.95685896
  Ewald energy   TEWEN  =     -2047.90029510
  -Hartree energ DENC   =      -423.61879154
  -exchange      EXHF   =         0.00000000
  -V(xc)+E(xc)   XCENC  =        77.78582194
  PAW double counting   =      3876.93840252    -3825.66456711
  entropy T*S    EENTRO =        -0.05965553
  eigenvalues    EBANDS =      -182.93069970
  atomic energy  EATOM  =      2306.65267270
  Solvation  Ediel_sol  =         0.00000000
  ---------------------------------------------------
  free energy    TOTEN  =       -37.84025288 eV

  energy without entropy =      -37.78059735  energy(sigma->0) =      -37.81042511


--------------------------------------------------------------------------------------------------------




--------------------------------------- Iteration      1(   9)  ---------------------------------------


    EDDIAG:  cpu time    2.3847: real time    2.3852
  RMM-DIIS:  cpu time    8.2901: real time    8.2911
    ORTHCH:  cpu time    0.4211: real time    0.4211
       DOS:  cpu time    0.0095: real time    0.0095
    --------------------------------------------
      LOOP:  cpu time   11.1055: real time   11.1069

 eigenvalue-minimisations  : 34751
 total energy-change (2. order) :-0.5883282E-04  (-0.4188823E-04)
 number of electron      33.0000001 magnetization       0.0017685
 augmentation part       33.0000001 magnetization       0.0017685

 Free energy of the ion-electron system (eV)
  ---------------------------------------------------
  alpha Z        PSCENC =       180.95685896
  Ewald energy   TEWEN  =     -2047.90029510
  -Hartree energ DENC   =      -423.61879154
  -exchange      EXHF   =         0.00000000
  -V(xc)+E(xc)   XCENC  =        77.78582194
  PAW double counting   =      3876.93840252    -3825.66456711
  entropy T*S    EENTRO =        -0.05965548
  eigenvalues    EBANDS =      -182.93075858
  atomic energy  EATOM  =      2306.65267270
  Solvation  Ediel_sol  =         0.00000000
  ---------------------------------------------------
  free energy    TOTEN  =       -37.84031171 eV

  energy without entropy =      -37.78065623  energy(sigma->0) =      -37.81048397


--------------------------------------------------------------------------------------------------------




 average (electrostatic) potential at core
  the test charge radii are     1.1929  1.2064  0.7215
  (the norm of the test charge is              1.0000)
       1 -34.8668       2 -42.7927       3 -71.6899       4 -71.6907       5 -71.6907
 
 
 
 E-fermi :   4.4944     XC(G=0): -11.7203     alpha+bet :-13.3782


 spin component 1

 k-point     1 :       0.0000    0.0000    0.0000
  band No.  band energies     occupation 
      1     -29.0574      1.00000
      2     -14.3098      1.00000
      3     -13.0979      1.00000
      4     -13.0977      1.00000
      5     -11.0916      1.00000
      6     -11.0916      1.00000
      7     -11.0916      1.00000
      8       0.1623      1.00000
      9       0.1625      1.00000
     10       0.1625      1.00000
     11       2.1397      1.00000
     12       2.1400      1.00000
     13       2.1400      1.00000
     14       2.9854      1.00000
     15       2.9857      1.00000
     16       2.9857      1.00000
     17       4.3059      0.90870
     18       4.3059      0.90870
     19       4.3059      0.90869
     20       6.4840      0.00000
     21       6.4843      0.00000
     22       8.8263      0.00000
     23       8.8268      0.00000
     24       9.9177      0.00000
     25      11.8629      0.00000
     26      11.8630      0.00000
     27      11.8630      0.00000
     28      18.4648      0.00000
     29      20.8038      0.00000
     30      20.8040      0.00000
     31      20.8040      0.00000
     32      24.5548      0.00000
     33      24.5549      0.00000
     34      24.5549      0.00000
     35      25.0000      0.00000
     36      25.0001      0.00000
     37      25.4290      0.00000
     38      26.7444      0.00000
     39      26.7448      0.00000
     40      26.7448      0.00000
     41      30.4335      0.00000
     42      30.4335      0.00000
     43      30.4339      0.00000
     44      34.2915      0.00000
     45      34.3428      0.00000
     46      34.4719      0.00000
     47      34.4906      0.00000
     48      54.5004      0.00000
     49      54.5270      0.00000
     50      54.7252      0.00000

 k-point     2 :       0.0128    0.0000    0.0000
  band No.  band energies     occupation 
      1     -29.0573      1.00000
      2     -14.3098      1.00000
      3     -13.0984      1.00000
      4     -13.0977      1.00000
      5     -11.0915      1.00000
      6     -11.0915      1.00000
      7     -11.0903      1.00000
      8       0.1601      1.00000
      9       0.1622      1.00000
     10       0.1624      1.00000
     11       2.1366      1.00000
     12       2.1370      1.00000
     13       2.1383      1.00000
     14       2.9797      1.00000
     15       2.9837      1.00000
     16       2.9841      1.00000
     17       4.3061      0.90847
     18       4.3113      0.90228
     19       4.3113      0.90227
     20       6.4842      0.00000
     21       6.4908      0.00000
     22       8.8293      0.00000
     23       8.8301      0.00000
     24       9.9218      0.00000
     25      11.8627      0.00000
     26      11.8650      0.00000
     27      11.8650      0.00000
     28      18.4653      0.00000
     29      20.8035      0.00000
     30      20.8036      0.00000
     31      20.8037      0.00000
     32      24.5256      0.00000
     33      24.5517      0.00000
     34      24.5518      0.00000
     35      24.9851      0.00000
     36      24.9994      0.00000
     37      25.4615      0.00000
     38      26.7409      0.00000
     39      26.7450      0.00000
     40      26.7454      0.00000
     41      30.4297      0.00000
     42      30.4304      0.00000
     43      30.5243      0.00000
     44      34.2854      0.00000
     45      34.2950      0.00000
     46      34.3559      0.00000
     47      34.4882      0.00000
     48      34.4913      0.00000
     49      40.9640      0.00000
     50      51.4356      0.00000

 k-point     3 :       0.0256    0.0000    0.0000
  band No.  band energies     occupation 
      1     -29.0572      1.00000
      2     -14.3097      1.00000
      3     -13.0998      1.00000
      4     -13.0974      1.00000
      5     -11.0912      1.00000
      6     -11.0912      1.00000
      7     -11.0864      1.00000
      8       0.1526      1.00000
      9       0.1619      1.00000
     10       0.1621      1.00000
     11       2.1275      1.00000
     12       2.1279      1.00000
     13       2.1331      1.00000
     14       2.9604      1.00000
     15       2.9774      1.00000
     16       2.9778      1.00000
     17       4.3066      0.90780
     18       4.3272      0.88134
     19       4.3273      0.88132
     20       6.4843      0.00000
     21       6.5103      0.00000
     22       8.8381      0.00000
     23       8.8399      0.00000
     24       9.9341      0.00000
     25      11.8617      0.00000
     26      11.8710      0.00000
     27      11.8711      0.00000
     28      18.4668      0.00000
     29      20.8017      0.00000
     30      20.8023      0.00000
     31      20.8025      0.00000
     32      24.4480      0.00000
     33      24.5423      0.00000
     34      24.5425      0.00000
     35      24.9406      0.00000
     36      24.9972      0.00000
     37      25.5487      0.00000
     38      26.7292      0.00000
     39      26.7468      0.00000
     40      26.7473      0.00000
     41      30.4181      0.00000
     42      30.4185      0.00000
     43      30.6424      0.00000
     44      34.2290      0.00000
     45      34.3020      0.00000
     46      34.3601      0.00000
     47      34.4935      0.00000
     48      34.5035      0.00000
     49      34.6075      0.00000
     50      53.8305      0.00000

 k-point     4 :       0.0385    0.0000    0.0000
  band No.  band energies     occupation 
      1     -29.0569      1.00000
      2     -14.3097      1.00000
      3     -13.1021      1.00000
      4     -13.0971      1.00000
      5     -11.0907      1.00000
      6     -11.0907      1.00000
      7     -11.0800      1.00000
      8       0.1403      1.00000
      9       0.1613      1.00000
     10       0.1616      1.00000
     11       2.1125      1.00000
     12       2.1128      1.00000
     13       2.1246      1.00000
     14       2.9288      1.00000
     15       2.9674      1.00000
     16       2.9677      1.00000
     17       4.3076      0.90668
     18       4.3532      0.84085
     19       4.3532      0.84083
     20       6.4845      0.00000
     21       6.5422      0.00000
     22       8.8527      0.00000
     23       8.8562      0.00000
     24       9.9545      0.00000
     25      11.8600      0.00000
     26      11.8811      0.00000
     27      11.8811      0.00000
     28      18.4692      0.00000
     29      20.7980      0.00000
     30      20.8004      0.00000
     31      20.8006      0.00000
     32      24.3412      0.00000
     33      24.5268      0.00000
     34      24.5269      0.00000
     35      24.8674      0.00000
     36      24.9935      0.00000
     37      25.6714      0.00000
     38      26.7098      0.00000
     39      26.7498      0.00000
     40      26.7502      0.00000
     41      30.3992      0.00000
     42      30.3996      0.00000
     43      30.6982      0.00000
     44      34.1395      0.00000
     45      34.3159      0.00000
     46      34.4242      0.00000
     47      34.4969      0.00000
     48      34.5243      0.00000
     49      34.5839      0.00000
     50      37.8790      0.00000

 k-point     5 :       0.0513    0.0000    0.0000
  band No.  band energies     occupation 
      1     -29.0566      1.00000
      2     -14.3097      1.00000
      3     -13.1051      1.00000
      4     -13.0965      1.00000
[...]
     20      10.5269      0.00000
     21      10.5272      0.00000
     22      10.5644      0.00000
     23      10.6895      0.00000
     24      10.6900      0.00000
     25      13.4118      0.00000
     26      13.4120      0.00000
     27      14.0199      0.00000
     28      18.1163      0.00000
     29      18.1529      0.00000
     30      18.1536      0.00000
     31      20.2456      0.00000
     32      20.9471      0.00000
     33      20.9688      0.00000
     34      20.9689      0.00000
     35      23.5638      0.00000
     36      23.5638      0.00000
     37      23.6558      0.00000
     38      26.7296      0.00000
     39      26.8185      0.00000
     40      26.8187      0.00000
     41      31.8732      0.00000
     42      31.8775      0.00000
     43      32.0807      0.00000
     44      33.0305      0.00000
     45      33.1751      0.00000
     46      35.5061      0.00000
     47      39.1306      0.00000
     48      39.3083      0.00000
     49      54.3411      0.00000
     50      55.9010      0.00000

 k-point   159 :       0.4872    0.4872    0.4872
  band No.  band energies     occupation 
      1     -28.9775      1.00000
      2     -12.9575      1.00000
      3     -12.9518      1.00000
      4     -12.9514      1.00000
      5     -11.4097      1.00000
      6     -11.4096      1.00000
      7     -11.4049      1.00000
      8      -1.8578      1.00000
      9      -1.1379      1.00000
     10      -1.1372      1.00000
     11      -0.5514      1.00000
     12      -0.5471      1.00000
     13      -0.5470      1.00000
     14       3.3576      1.00000
     15       3.3577      1.00000
     16       3.3611      1.00000
     17       6.7971      0.00000
     18       6.7975      0.00000
     19       6.7976      0.00000
     20      10.5321      0.00000
     21      10.5322      0.00000
     22      10.5406      0.00000
     23      10.6773      0.00000
     24      10.6779      0.00000
     25      13.4275      0.00000
     26      13.4277      0.00000
     27      13.9996      0.00000
     28      18.1349      0.00000
     29      18.1437      0.00000
     30      18.1445      0.00000
     31      20.2870      0.00000
     32      20.9543      0.00000
     33      20.9598      0.00000
     34      20.9598      0.00000
     35      23.6144      0.00000
     36      23.6144      0.00000
     37      23.6383      0.00000
     38      26.6899      0.00000
     39      26.7127      0.00000
     40      26.7129      0.00000
     41      32.0728      0.00000
     42      32.0774      0.00000
     43      32.1524      0.00000
     44      33.0109      0.00000
     45      33.0560      0.00000
     46      35.6370      0.00000
     47      39.0750      0.00000
     48      39.2909      0.00000
     49      54.3025      0.00000
     50      55.8965      0.00000

 k-point   160 :       0.5000    0.5000    0.5000
  band No.  band energies     occupation 
      1     -28.9774      1.00000
      2     -12.9505      1.00000
      3     -12.9505      1.00000
      4     -12.9499      1.00000
      5     -11.4118      1.00000
      6     -11.4117      1.00000
      7     -11.4117      1.00000
      8      -1.8627      1.00000
      9      -1.1406      1.00000
     10      -1.1398      1.00000
     11      -0.5486      1.00000
     12      -0.5484      1.00000
     13      -0.5484      1.00000
     14       3.3632      1.00000
     15       3.3634      1.00000
     16       3.3634      1.00000
     17       6.8003      0.00000
     18       6.8004      0.00000
     19       6.8004      0.00000
     20      10.5325      0.00000
     21      10.5325      0.00000
     22      10.5327      0.00000
     23      10.6745      0.00000
     24      10.6750      0.00000
     25      13.4327      0.00000
     26      13.4329      0.00000
     27      13.9928      0.00000
     28      18.1403      0.00000
     29      18.1414      0.00000
     30      18.1414      0.00000
     31      20.3014      0.00000
     32      20.9567      0.00000
     33      20.9567      0.00000
     34      20.9568      0.00000
     35      23.6324      0.00000
     36      23.6324      0.00000
     37      23.6324      0.00000
     38      26.6761      0.00000
     39      26.6764      0.00000
     40      26.6764      0.00000
     41      32.1549      0.00000
     42      32.1562      0.00000
     43      32.1817      0.00000
     44      32.9939      0.00000
     45      33.0111      0.00000
     46      35.6753      0.00000
     47      39.0286      0.00000
     48      39.2748      0.00000
     49      54.2982      0.00000
     50      55.8986      0.00000


--------------------------------------------------------------------------------------------------------


 soft charge-density along one line, spin component           1
         0         1         2         3         4         5         6         7         8         9
 total charge-density along one line
 
 soft charge-density along one line, spin component           2
         0         1         2         3         4         5         6         7         8         9
 total charge-density along one line
 
 pseudopotential strength for first ion, spin component:           1
-11.983  -2.444   0.000   0.000  -0.000   0.000   0.000  -0.000
 -2.444  -2.272   0.000   0.000  -0.000   0.000   0.000  -0.000
  0.000   0.000 -14.456  -0.000   0.000 -14.189  -0.000   0.000
  0.000   0.000  -0.000 -14.457  -0.000  -0.000 -14.189  -0.000
 -0.000  -0.000   0.000  -0.000 -14.456   0.000  -0.000 -14.189
  0.000   0.000 -14.189  -0.000   0.000 -13.925  -0.000   0.000
  0.000   0.000  -0.000 -14.189  -0.000  -0.000 -13.925  -0.000
 -0.000  -0.000   0.000  -0.000 -14.189   0.000  -0.000 -13.925
  0.000   0.000  -0.000   0.000   0.000  -0.000   0.000   0.000
 -0.000  -0.000   0.000   0.000   0.000   0.000   0.000   0.000
 -0.000  -0.000  -0.000   0.000   0.000  -0.000   0.000   0.000
 -0.000  -0.000   0.000  -0.000   0.000   0.000  -0.000   0.000
 -0.000   0.000  -0.000   0.000  -0.000  -0.000   0.000  -0.000
  0.000   0.000  -0.000   0.000   0.000  -0.000   0.000   0.000
 -0.000  -0.000   0.000   0.000   0.000   0.000   0.000   0.000
 -0.000  -0.000  -0.000   0.000   0.000  -0.000   0.000   0.000
 -0.000  -0.000   0.000  -0.000   0.000   0.000  -0.000   0.000
 -0.000   0.000  -0.000   0.000  -0.000  -0.000   0.000  -0.000
 pseudopotential strength for first ion, spin component:           2
-11.983  -2.444   0.000   0.000  -0.000   0.000   0.000  -0.000
 -2.444  -2.272   0.000   0.000  -0.000   0.000   0.000  -0.000
  0.000   0.000 -14.456  -0.000   0.000 -14.189  -0.000   0.000
  0.000   0.000  -0.000 -14.456  -0.000  -0.000 -14.189  -0.000
 -0.000  -0.000   0.000  -0.000 -14.456   0.000  -0.000 -14.189
  0.000   0.000 -14.189  -0.000   0.000 -13.925  -0.000   0.000
  0.000   0.000  -0.000 -14.189  -0.000  -0.000 -13.925  -0.000
 -0.000  -0.000   0.000  -0.000 -14.189   0.000  -0.000 -13.925
  0.000   0.000  -0.000  -0.000   0.000  -0.000  -0.000   0.000
 -0.000  -0.000   0.000   0.000  -0.000   0.000   0.000  -0.000
  0.000   0.000  -0.000   0.000   0.000  -0.000   0.000   0.000
 -0.000  -0.000  -0.000  -0.000   0.000  -0.000  -0.000   0.000
 -0.000   0.000  -0.000   0.000  -0.000  -0.000   0.000  -0.000
  0.000   0.000  -0.000  -0.000   0.000  -0.000  -0.000   0.000
 -0.000  -0.000   0.000   0.000  -0.000   0.000   0.000  -0.000
  0.000   0.000  -0.000   0.000   0.000  -0.000   0.000   0.000
 -0.000  -0.000  -0.000  -0.000   0.000  -0.000  -0.000   0.000
 -0.000   0.000  -0.000   0.000  -0.000  -0.000   0.000  -0.000
 total augmentation occupancy for first ion, spin component:           1
  2.000   0.000   0.000   0.000   0.000   0.000   0.000   0.000   0.000   0.000   0.000   0.000   0.000   0.000   0.000   0.000
  0.000   1.999   0.000   0.000   0.000   0.000   0.000   0.000   0.000   0.000   0.000   0.000   0.000   0.000   0.000   0.000
  0.000   0.000   2.000   0.000   0.000   0.000   0.000   0.000   0.000   0.000   0.000   0.000   0.000   0.000   0.000   0.000
  0.000   0.000   0.000   2.000   0.000   0.000   0.000   0.000   0.000   0.000   0.000   0.000   0.000   0.000   0.000   0.000
  0.000   0.000   0.000   0.000   2.000   0.000   0.000   0.000   0.000   0.000   0.000   0.000   0.000   0.000   0.000   0.000
  0.000   0.000   0.000   0.000   0.000   0.000   0.000   0.000   0.000   0.000   0.000   0.000   0.000   0.000   0.000   0.000
  0.000   0.000   0.000   0.000   0.000   0.000   0.000   0.000   0.000   0.000   0.000   0.000   0.000   0.000   0.000   0.000
  0.000   0.000   0.000   0.000   0.000   0.000   0.000   0.000   0.000   0.000   0.000   0.000   0.000   0.000   0.000   0.000
  0.000   0.000   0.000   0.000   0.000   0.000   0.000   0.000   0.000   0.000   0.000   0.000   0.000   0.000   0.000   0.000
  0.000   0.000   0.000   0.000   0.000   0.000   0.000   0.000   0.000   0.000   0.000   0.000   0.000   0.000   0.000   0.000
  0.000   0.000   0.000   0.000   0.000   0.000   0.000   0.000   0.000   0.000   0.000   0.000   0.000   0.000   0.000   0.000
  0.000   0.000   0.000   0.000   0.000   0.000   0.000   0.000   0.000   0.000   0.000   0.000   0.000   0.000   0.000   0.000
  0.000   0.000   0.000   0.000   0.000   0.000   0.000   0.000   0.000   0.000   0.000   0.000   0.000   0.000   0.000   0.000
  0.000   0.000   0.000   0.000   0.000   0.000   0.000   0.000   0.000   0.000   0.000   0.000   0.000   0.000   0.000   0.000
  0.000   0.000   0.000   0.000   0.000   0.000   0.000   0.000   0.000   0.000   0.000   0.000   0.000   0.000   0.000   0.000
  0.000   0.000   0.000   0.000   0.000   0.000   0.000   0.000   0.000   0.000   0.000   0.000   0.000   0.000   0.000   0.000
  0.000   0.000   0.000   0.000   0.000   0.000   0.000   0.000   0.000   0.000   0.000   0.000   0.000   0.000   0.000   0.000
  0.000   0.000   0.000   0.000   0.000   0.000   0.000   0.000   0.000   0.000   0.000   0.000   0.000   0.000   0.000   0.000
 total augmentation occupancy for first ion, spin component:           2
  0.000   0.000   0.000   0.000   0.000   0.000   0.000   0.000   0.000   0.000   0.000   0.000   0.000   0.000   0.000   0.000
  0.000   0.000   0.000   0.000   0.000   0.000   0.000   0.000   0.000   0.000   0.000   0.000   0.000   0.000   0.000   0.000
  0.000   0.000   0.000   0.000   0.000   0.000   0.000   0.000   0.000   0.000   0.000   0.000   0.000   0.000   0.000   0.000
  0.000   0.000   0.000   0.000   0.000   0.000   0.000   0.000   0.000   0.000   0.000   0.000   0.000   0.000   0.000   0.000
  0.000   0.000   0.000   0.000   0.000   0.000   0.000   0.000   0.000   0.000   0.000   0.000   0.000   0.000   0.000   0.000
  0.000   0.000   0.000   0.000   0.000   0.000   0.000   0.000   0.000   0.000   0.000   0.000   0.000   0.000   0.000   0.000
  0.000   0.000   0.000   0.000   0.000   0.000   0.000   0.000   0.000   0.000   0.000   0.000   0.000   0.000   0.000   0.000
  0.000   0.000   0.000   0.000   0.000   0.000   0.000   0.000   0.000   0.000   0.000   0.000   0.000   0.000   0.000   0.000
  0.000   0.000   0.000   0.000   0.000   0.000   0.000   0.000   0.000   0.000   0.000   0.000   0.000   0.000   0.000   0.000
  0.000   0.000   0.000   0.000   0.000   0.000   0.000   0.000   0.000   0.000   0.000   0.000   0.000   0.000   0.000   0.000
  0.000   0.000   0.000   0.000   0.000   0.000   0.000   0.000   0.000   0.000   0.000   0.000   0.000   0.000   0.000   0.000
  0.000   0.000   0.000   0.000   0.000   0.000   0.000   0.000   0.000   0.000   0.000   0.000   0.000   0.000   0.000   0.000
  0.000   0.000   0.000   0.000   0.000   0.000   0.000   0.000   0.000   0.000   0.000   0.000   0.000   0.000   0.000   0.000
  0.000   0.000   0.000   0.000   0.000   0.000   0.000   0.000   0.000   0.000   0.000   0.000   0.000   0.000   0.000   0.000
  0.000   0.000   0.000   0.000   0.000   0.000   0.000   0.000   0.000   0.000   0.000   0.000   0.000   0.000   0.000   0.000
  0.000   0.000   0.000   0.000   0.000   0.000   0.000   0.000   0.000   0.000   0.000   0.000   0.000   0.000   0.000   0.000
  0.000   0.000   0.000   0.000   0.000   0.000   0.000   0.000   0.000   0.000   0.000   0.000   0.000   0.000   0.000   0.000
  0.000   0.000   0.000   0.000   0.000   0.000   0.000   0.000   0.000   0.000   0.000   0.000   0.000   0.000   0.000   0.000


------------------------ aborting loop because EDIFF is reached ----------------------------------------


 


 total charge     
 
# of ion       s       p       d       tot
------------------------------------------
    1        1.996   5.831   0.190   8.017
    2        0.472   1.280   3.189   4.942
    3        1.525   3.801   0.000   5.326
    4        1.547   3.563   0.000   5.110
    5        1.565   3.345   0.000   4.910
--------------------------------------------------
tot          7.105  17.820   3.379  28.304
 


 magnetization (x)
 
# of ion       s       p       d       tot
------------------------------------------
    1       -0.000  -0.000   0.000   0.000
    2        0.000   0.000   0.002   0.002
    3       -0.000  -0.000   0.000  -0.000
    4       -0.000  -0.000   0.000  -0.000
    5       -0.000  -0.000   0.000  -0.000
--------------------------------------------------
tot         -0.000  -0.000   0.002   0.002
 
    CHARGE:  cpu time    0.3457: real time    0.3458
    FORLOC:  cpu time    0.0020: real time    0.0020
    FORNL :  cpu time    3.5732: real time    3.5736
    STRESS:  cpu time    7.2312: real time    7.2322
    FORCOR:  cpu time    0.0345: real time    0.0345
    FORHAR:  cpu time    0.0041: real time    0.0041
    OFIELD:  cpu time    0.0001: real time    0.0001

  FORCE on cell =-STRESS in cart. coord.  units (eV):
  Direction    XX          YY          ZZ          XY          YZ          ZX
  --------------------------------------------------------------------------------------
  Alpha Z   180.95686   180.95686   180.95686
  Ewald    -682.63392  -682.63392  -682.63392    -0.00000     0.00000     0.00000
  Hartree   145.03977   145.03977   148.74449    -0.00000    -0.00000    -0.00000
  E(xc)    -149.46683  -149.46683  -149.22604    -0.00000    -0.00000    -0.00000
  Local       8.18668     8.18668     2.67524    -0.00000    -0.00000     0.00000
  n-local  -112.02239  -110.18611  -107.22238    -0.35785    -0.17489    -0.17424
  augment    43.93242    43.93242    44.00692     0.00000     0.00000     0.00000
  Kinetic   559.05433   574.23775   578.01198    -1.57402    -0.84840    -0.84863
  Fock        0.00000     0.00000     0.00000     0.00000     0.00000     0.00000
  -------------------------------------------------------------------------------------
  Total       1.55677     1.55677    15.31314     0.00000    -0.00000     0.00000
  in kB      43.82605    43.82605   431.09287     0.00000    -0.00000     0.00000
  external pressure =      172.91 kB  Pullay stress =        0.00 kB


 VOLUME and BASIS-vectors are now :
 -----------------------------------------------------------------------------
  energy-cutoff  :      600.00
  volume of cell :       56.91
      direct lattice vectors                 reciprocal lattice vectors
     3.846520000  0.000000000  0.000000000     0.259975250  0.000000000  0.000000000
     0.000000000  3.846520000  0.000000000     0.000000000  0.259975250  0.000000000
     0.000000000  0.000000000  3.846520000     0.000000000  0.000000000  0.259975250

  length of vectors
     3.846520000  3.846520000  3.846520000     0.259975250  0.259975250  0.259975250


 FORCES acting on ions
    electron-ion (+dipol)            ewald-force                    non-local-force                 convergence-correction
 -----------------------------------------------------------------------------------------------
   -.523E-14 -.497E-14 -.558E-14   -.479E-14 -.313E-14 -.318E-14   0.000E+00 0.000E+00 0.000E+00   0.495E-14 0.154E-13 -.803E-14
   0.311E-13 -.885E-12 -.819E-13   -.289E-14 -.187E-14 0.208E-15   0.000E+00 0.000E+00 0.000E+00   -.787E-14 0.131E-13 -.566E-13
   0.170E-12 -.154E-11 -.151E-11   0.406E-14 -.102E-14 0.290E-15   0.000E+00 0.000E+00 0.000E+00   -.158E-13 0.436E-13 0.883E-13
   0.156E-12 -.546E-14 -.197E-11   0.190E-14 0.339E-14 0.147E-14   0.000E+00 0.000E+00 0.000E+00   -.127E-13 0.241E-13 -.718E-13
   -.771E-14 0.158E-12 0.154E-12   0.166E-14 0.231E-14 0.145E-14   0.000E+00 0.000E+00 0.000E+00   0.135E-13 -.255E-14 -.334E-13
 -----------------------------------------------------------------------------------------------
   0.345E-12 -.228E-11 -.342E-11   -.550E-16 -.318E-15 0.244E-15   0.000E+00 0.000E+00 0.000E+00   -.179E-13 0.937E-13 -.815E-13
 
 
 POSITION                                       TOTAL-FORCE (eV/Angst)
 -----------------------------------------------------------------------------------
      0.00000      0.00000      0.00000         0.000000      0.000000      0.000000
      1.92326      1.92326      1.92326         0.000000      0.000000      0.000000
      1.92326      1.92326      0.00000         0.000000      0.000000      0.000000
      1.92326      0.00000      1.92326         0.000000      0.000000      0.000000
      0.00000      1.92326      1.92326         0.000000      0.000000      0.000000
 -----------------------------------------------------------------------------------
    total drift:                                0.000000     -0.000000     -0.000000


--------------------------------------------------------------------------------------------------------



  FREE ENERGIE OF THE ION-ELECTRON SYSTEM (eV)
  ---------------------------------------------------
  free  energy   TOTEN  =       -37.84031171 eV

  energy  without entropy=      -37.78065623  energy(sigma->0) =      -37.81048397
 


--------------------------------------------------------------------------------------------------------


    POTLOK:  cpu time    0.0699: real time    0.0699


--------------------------------------------------------------------------------------------------------


 writing wavefunctions
     LOOP+:  cpu time  129.9548: real time  131.0702
    4ORBIT:  cpu time    0.0000: real time    0.0000
 


 total charge     
 
# of ion       s       p       d       tot
------------------------------------------
    1        1.996   5.831   0.190   8.017
    2        0.472   1.280   3.189   4.942
    3        1.525   3.801   0.000   5.326
    4        1.547   3.563   0.000   5.110
    5        1.565   3.345   0.000   4.910
--------------------------------------------------
tot          7.105  17.820   3.379  28.304
 


 magnetization (x)
 
# of ion       s       p       d       tot
------------------------------------------
    1       -0.000  -0.000   0.000   0.000
    2        0.000   0.000   0.002   0.002
    3       -0.000  -0.000   0.000  -0.000
    4       -0.000  -0.000   0.000  -0.000
    5       -0.000  -0.000   0.000  -0.000
--------------------------------------------------
tot         -0.000  -0.000   0.002   0.002
 

 total amount of memory used by VASP MPI-rank0   272875. kBytes
=======================================================================

   base      :      30000. kBytes
   nonl-proj :     133902. kBytes
   fftplans  :       3454. kBytes
   grid      :       3220. kBytes
   one-center:        155. kBytes
   wavefun   :     102144. kBytes
 
  
  
 General timing and accounting informations for this job:
 ========================================================
  
                  Total CPU time used (sec):      136.008
                            User time (sec):      132.850
                          System time (sec):        3.158
                         Elapsed time (sec):      137.145
  
                   Maximum memory used (kb):      273072.
                   Average memory used (kb):           0.
  
                          Minor page faults:       440442
                          Major page faults:            0
                 Voluntary context switches:          138
