 vasp.5.4.4.18Apr17-6-g9f103f2a35 (build Sep 04 2018 22:01:38) complex          
  
 executed on             LinuxIFC date 2018.09.16  22:11:00
 serial version


--------------------------------------------------------------------------------------------------------


 INCAR:
 POTCAR:    PAW Sr_sv 10Feb1998                   
 POTCAR:    PAW V 07Aug2001                       
 POTCAR:    PAW O 22Mar2012                       
 POTCAR:    PAW Sr_sv 10Feb1998                   
   VRHFIN =Sr: 3s3p4s                                                           
   LEXCH  = CA                                                                  
   EATOM  =   845.5689 eV,   62.1476 Ry                                         
                                                                                
   TITEL  = PAW Sr_sv 10Feb1998                                                 
   LULTRA =        F    use ultrasoft PP ?                                      
   IUNSCR =        1    unscreen: 0-lin 1-nonlin 2-no                           
   RPACOR =    2.200    partial core radius                                     
   POMASS =   87.620; ZVAL   =   10.000    mass and valenz                      
   RCORE  =    2.500    outmost cutoff radius                                   
   RWIGS  =    4.040; RWIGS  =    2.138    wigner-seitz radius (au A)           
   ENMAX  =  226.327; ENMIN  =  169.745 eV                                      
   RCLOC  =    2.201    cutoff for local pot                                    
   LCOR   =        T    correct aug charges                                     
   LPAW   =        T    paw PP                                                  
   EAUG   =  366.804                                                            
   DEXC   =    0.000                                                            
   RMAX   =    2.547    core radius for proj-oper                               
   RAUG   =    1.300    factor for augmentation sphere                          
   RDEP   =    2.562    radius for radial grids                                 
   RDEPT  =    2.145    core radius for aug-charge                              
                                                                                
   Atomic configuration                                                         
   10 entries                                                                   
     n  l   j            E        occ.                                          
     1  0  0.50    -15851.8828   2.0000                                         
     2  0  0.50     -2148.9480   2.0000                                         
     2  1  1.50     -1912.9353   6.0000                                         
     3  0  0.50      -331.8462   2.0000                                         
     3  1  1.50      -255.3856   6.0000                                         
     3  2  2.50      -128.2784  10.0000                                         
     4  0  0.50       -40.8303   2.0000                                         
     5  0  0.50        -3.6422   1.9990                                         
     4  1  1.50       -22.8493   6.0000                                         
     4  2  1.50        -1.4198   0.0010                                         
   Description                                                                  
     l       E           TYP  RCUT    TYP  RCUT                                 
     0    -40.8303494     23  2.500                                             
     0     -3.6421860     23  2.500                                             
     1    -22.8492718     23  2.500                                             
     1    -24.2098544     23  2.500                                             
     2     -1.4197899     23  2.500                                             
     2      0.0045700     23  2.500                                             
  local pseudopotential read in
  partial core-charges read in
  partial kinetic energy density read in
  atomic valenz-charges read in
  non local Contribution for L=           0  read in
    real space projection operators read in
  non local Contribution for L=           0  read in
    real space projection operators read in
  non local Contribution for L=           1  read in
    real space projection operators read in
  non local Contribution for L=           1  read in
    real space projection operators read in
  non local Contribution for L=           2  read in
    real space projection operators read in
  non local Contribution for L=           2  read in
    real space projection operators read in
    PAW grid and wavefunctions read in
 
   number of l-projection  operators is LMAX  =           6
   number of lm-projection operators is LMMAX =          18
 
 POTCAR:    PAW V 07Aug2001                       
   VRHFIN =V: d4 s1                                                             
   LEXCH  = CA                                                                  
   EATOM  =   172.4520 eV,   12.6749 Ry                                         
                                                                                
   TITEL  = PAW V 07Aug2001                                                     
   LULTRA =        F    use ultrasoft PP ?                                      
   IUNSCR =        1    unscreen: 0-lin 1-nonlin 2-no                           
   RPACOR =    2.000    partial core radius                                     
   POMASS =   50.941; ZVAL   =    5.000    mass and valenz                      
   RCORE  =    2.700    outmost cutoff radius                                   
   RWIGS  =    2.500; RWIGS  =    1.323    wigner-seitz radius (au A)           
   ENMAX  =  192.706; ENMIN  =  144.529 eV                                      
   RCLOC  =    1.779    cutoff for local pot                                    
   LCOR   =        T    correct aug charges                                     
   LPAW   =        T    paw PP                                                  
   EAUG   =  358.662                                                            
   DEXC   =    0.000                                                            
   RMAX   =    2.768    core radius for proj-oper                               
   RAUG   =    1.300    factor for augmentation sphere                          
   RDEP   =    2.762    radius for radial grids                                 
   RDEPT  =    2.240    core radius for aug-charge                              
                                                                                
   Atomic configuration                                                         
    9 entries                                                                   
     n  l   j            E        occ.                                          
     1  0  0.50     -5334.6266   2.0000                                         
     2  0  0.50      -595.8619   2.0000                                         
     2  1  1.50      -498.2253   6.0000                                         
     3  0  0.50       -66.0397   2.0000                                         
     3  1  1.50       -40.3979   6.0000                                         
     3  2  2.50        -2.6339   4.0000                                         
     4  0  0.50        -4.0392   1.0000                                         
     4  1  0.50        -4.0817   0.0000                                         
     4  3  2.50        -1.3606   0.0000                                         
   Description                                                                  
     l       E           TYP  RCUT    TYP  RCUT                                 
     2     -2.6338511     23  2.700                                             
     2     -3.9944337     23  2.700                                             
     0     -4.0392463     23  2.700                                             
     0     27.2116520     23  2.700                                             
     1     -4.0817478     23  2.700                                             
     1     27.2116520     23  2.700                                             
  local pseudopotential read in
  partial core-charges read in
  partial kinetic energy density read in
  atomic valenz-charges read in
  non local Contribution for L=           2  read in
    real space projection operators read in
  non local Contribution for L=           2  read in
    real space projection operators read in
  non local Contribution for L=           0  read in
    real space projection operators read in
  non local Contribution for L=           0  read in
    real space projection operators read in
  non local Contribution for L=           1  read in
    real space projection operators read in
  non local Contribution for L=           1  read in
    real space projection operators read in
    PAW grid and wavefunctions read in
 
   number of l-projection  operators is LMAX  =           6
   number of lm-projection operators is LMMAX =          18
 
 POTCAR:    PAW O 22Mar2012                       
   VRHFIN =O: s2p4                                                              
   LEXCH  = CA                                                                  
   EATOM  =   431.4380 eV,   31.7098 Ry                                         
                                                                                
   TITEL  = PAW O 22Mar2012                                                     
   LULTRA =        F    use ultrasoft PP ?                                      
   IUNSCR =        1    unscreen: 0-lin 1-nonlin 2-no                           
   RPACOR =    1.200    partial core radius                                     
   POMASS =   16.000; ZVAL   =    6.000    mass and valenz                      
   RCORE  =    1.520    outmost cutoff radius                                   
   RWIGS  =    1.550; RWIGS  =    0.820    wigner-seitz radius (au A)           
   ENMAX  =  400.000; ENMIN  =  300.000 eV                                      
   ICORE  =        2    local potential                                         
   LCOR   =        T    correct aug charges                                     
   LPAW   =        T    paw PP                                                  
   EAUG   =  605.392                                                            
   DEXC   =    0.000                                                            
   RMAX   =    1.553    core radius for proj-oper                               
   RAUG   =    1.300    factor for augmentation sphere                          
   RDEP   =    1.550    radius for radial grids                                 
   RDEPT  =    1.329    core radius for aug-charge                              
                                                                                
   Atomic configuration                                                         
    4 entries                                                                   
     n  l   j            E        occ.                                          
     1  0  0.50      -510.4605   2.0000                                         
     2  0  0.50       -23.7367   2.0000                                         
     2  1  0.50        -9.1995   4.0000                                         
     3  2  1.50        -9.5241   0.0000                                         
   Description                                                                  
     l       E           TYP  RCUT    TYP  RCUT                                 
     0    -23.7366993     23  1.200                                             
     0     -9.5240782     23  1.200                                             
     1     -9.1994509     23  1.520                                             
     1      8.1634956     23  1.520                                             
     2     -9.5240782      7  1.500                                             
  local pseudopotential read in
  partial core-charges read in
  partial kinetic energy density read in
  kinetic energy density of atom read in
  atomic valenz-charges read in
  non local Contribution for L=           0  read in
    real space projection operators read in
  non local Contribution for L=           0  read in
    real space projection operators read in
  non local Contribution for L=           1  read in
    real space projection operators read in
  non local Contribution for L=           1  read in
    real space projection operators read in
    PAW grid and wavefunctions read in
 
   number of l-projection  operators is LMAX  =           4
   number of lm-projection operators is LMMAX =           8
 

 ----------------------------------------------------------------------------- 
|                                                                             |
|  ADVICE TO THIS USER RUNNING 'VASP/VAMP'   (HEAR YOUR MASTER'S VOICE ...):  |
|                                                                             |
|      You enforced a specific xc-type in the INCAR file,                     |
|      a different type was found on the POTCAR file                          |
|          I HOPE YOU KNOW, WHAT YOU ARE  DOING                               |
|                                                                             |
 ----------------------------------------------------------------------------- 

  PAW Sr_sv 10Feb1998                   :
 energy of atom  1       EATOM= -845.5689
 kinetic energy error for atom=    0.0006 (will be added to EATOM!!)
  PAW V 07Aug2001                       :
 energy of atom  2       EATOM= -172.4520
 kinetic energy error for atom=    0.0002 (will be added to EATOM!!)
  PAW O 22Mar2012                       :
 energy of atom  3       EATOM= -431.4380
 kinetic energy error for atom=    0.0165 (will be added to EATOM!!)
 
 
 POSCAR: Sr V O                                  
  positions in direct lattice
  No initial velocities read in
 exchange correlation table for  LEXCH =       14
   RHO(1)=    0.500       N(1)  =     2000
   RHO(2)=  100.500       N(2)  =     4000
 


--------------------------------------------------------------------------------------------------------


 ion  position               nearest neighbor table
   1  0.000  0.000  0.000-   3 2.72   4 2.72   5 2.72   4 2.72   5 2.72   3 2.72   5 2.72   5 2.72
                             3 2.72   4 2.72   4 2.72   3 2.72   2 3.33   2 3.33   2 3.33   2 3.33
   2  0.500  0.500  0.500-   3 1.92   4 1.92   5 1.92   3 1.92   4 1.92   5 1.92   1 3.33   1 3.33
                             1 3.33   1 3.33   1 3.33   1 3.33   1 3.33   1 3.33
   3  0.500  0.500  0.000-   2 1.92   2 1.92   1 2.72   1 2.72   1 2.72   1 2.72
   4  0.500  0.000  0.500-   2 1.92   2 1.92   1 2.72   1 2.72   1 2.72   1 2.72
   5  0.000  0.500  0.500-   2 1.92   2 1.92   1 2.72   1 2.72   1 2.72   1 2.72
 
  LATTYP: Found a simple cubic cell.
 ALAT       =     3.8465200000
  
  Lattice vectors:
  
 A1 = (   3.8465200000,   0.0000000000,   0.0000000000)
 A2 = (   0.0000000000,   3.8465200000,   0.0000000000)
 A3 = (   0.0000000000,   0.0000000000,   3.8465200000)


Analysis of symmetry for initial positions (statically):
=====================================================================
 Subroutine PRICEL returns:
 Original cell was already a primitive cell.
 

 Routine SETGRP: Setting up the symmetry group for a 
 simple cubic supercell.


 Subroutine GETGRP returns: Found 48 space group operations
 (whereof 48 operations were pure point group operations)
 out of a pool of 48 trial point group operations.


The static configuration has the point symmetry O_h .


Analysis of symmetry for dynamics (positions and initial velocities):
=====================================================================
 Subroutine PRICEL returns:
 Original cell was already a primitive cell.
 

 Routine SETGRP: Setting up the symmetry group for a 
 simple cubic supercell.


 Subroutine GETGRP returns: Found 48 space group operations
 (whereof 48 operations were pure point group operations)
 out of a pool of 48 trial point group operations.


The dynamic configuration has the point symmetry O_h .


 Subroutine INISYM returns: Found 48 space group operations
 (whereof 48 operations are pure point group operations),
 and found     1 'primitive' translations

 
 
 KPOINTS: KPOINTS generated by PyProcar           
  interpolating k-points between supplied coordinates
  k-points in reciprocal lattice
Space group operators:
 irot       det(A)        alpha          n_x          n_y          n_z        tau_x        tau_y        tau_z
    1     1.000000     0.000000     1.000000     0.000000     0.000000     0.000000     0.000000     0.000000
    2    -1.000000     0.000000     1.000000     0.000000     0.000000     0.000000     0.000000     0.000000
    3     1.000000   120.000000    -0.577350    -0.577350    -0.577350     0.000000     0.000000     0.000000
    4    -1.000000   120.000000    -0.577350    -0.577350    -0.577350     0.000000     0.000000     0.000000
    5     1.000000   120.000000     0.577350     0.577350     0.577350     0.000000     0.000000     0.000000
    6    -1.000000   120.000000     0.577350     0.577350     0.577350     0.000000     0.000000     0.000000
    7     1.000000    90.000000     0.000000     0.000000    -1.000000     0.000000     0.000000     0.000000
    8    -1.000000    90.000000     0.000000     0.000000    -1.000000     0.000000     0.000000     0.000000
    9     1.000000   180.000000     0.000000     0.707107     0.707107     0.000000     0.000000     0.000000
   10    -1.000000   180.000000     0.000000     0.707107     0.707107     0.000000     0.000000     0.000000
   11     1.000000    90.000000     0.000000     1.000000     0.000000     0.000000     0.000000     0.000000
   12    -1.000000    90.000000     0.000000     1.000000     0.000000     0.000000     0.000000     0.000000
   13     1.000000   180.000000     0.000000     0.000000     1.000000     0.000000     0.000000     0.000000
   14    -1.000000   180.000000     0.000000     0.000000     1.000000     0.000000     0.000000     0.000000
   15     1.000000   120.000000    -0.577350     0.577350     0.577350     0.000000     0.000000     0.000000
   16    -1.000000   120.000000    -0.577350     0.577350     0.577350     0.000000     0.000000     0.000000
   17     1.000000   120.000000    -0.577350     0.577350    -0.577350     0.000000     0.000000     0.000000
   18    -1.000000   120.000000    -0.577350     0.577350    -0.577350     0.000000     0.000000     0.000000
   19     1.000000    90.000000     0.000000     0.000000     1.000000     0.000000     0.000000     0.000000
   20    -1.000000    90.000000     0.000000     0.000000     1.000000     0.000000     0.000000     0.000000
   21     1.000000    90.000000    -1.000000     0.000000     0.000000     0.000000     0.000000     0.000000
   22    -1.000000    90.000000    -1.000000     0.000000     0.000000     0.000000     0.000000     0.000000
   23     1.000000   180.000000     0.707107     0.000000     0.707107     0.000000     0.000000     0.000000
   24    -1.000000   180.000000     0.707107     0.000000     0.707107     0.000000     0.000000     0.000000
   25     1.000000   120.000000     0.577350    -0.577350     0.577350     0.000000     0.000000     0.000000
   26    -1.000000   120.000000     0.577350    -0.577350     0.577350     0.000000     0.000000     0.000000
   27     1.000000   120.000000    -0.577350    -0.577350     0.577350     0.000000     0.000000     0.000000
   28    -1.000000   120.000000    -0.577350    -0.577350     0.577350     0.000000     0.000000     0.000000
   29     1.000000   180.000000     1.000000     0.000000     0.000000     0.000000     0.000000     0.000000
   30    -1.000000   180.000000     1.000000     0.000000     0.000000     0.000000     0.000000     0.000000
   31     1.000000    90.000000     0.000000    -1.000000     0.000000     0.000000     0.000000     0.000000
   32    -1.000000    90.000000     0.000000    -1.000000     0.000000     0.000000     0.000000     0.000000
   33     1.000000   180.000000     0.707107     0.707107     0.000000     0.000000     0.000000     0.000000
   34    -1.000000   180.000000     0.707107     0.707107     0.000000     0.000000     0.000000     0.000000
   35     1.000000    90.000000     1.000000     0.000000     0.000000     0.000000     0.000000     0.000000
   36    -1.000000    90.000000     1.000000     0.000000     0.000000     0.000000     0.000000     0.000000
   37     1.000000   120.000000     0.577350    -0.577350    -0.577350     0.000000     0.000000     0.000000
   38    -1.000000   120.000000     0.577350    -0.577350    -0.577350     0.000000     0.000000     0.000000
   39     1.000000   180.000000     0.000000     1.000000     0.000000     0.000000     0.000000     0.000000
   40    -1.000000   180.000000     0.000000     1.000000     0.000000     0.000000     0.000000     0.000000
   41     1.000000   120.000000     0.577350     0.577350    -0.577350     0.000000     0.000000     0.000000
   42    -1.000000   120.000000     0.577350     0.577350    -0.577350     0.000000     0.000000     0.000000
   43     1.000000   180.000000     0.000000    -0.707107     0.707107     0.000000     0.000000     0.000000
   44    -1.000000   180.000000     0.000000    -0.707107     0.707107     0.000000     0.000000     0.000000
   45     1.000000   180.000000     0.707107    -0.707107     0.000000     0.000000     0.000000     0.000000
   46    -1.000000   180.000000     0.707107    -0.707107     0.000000     0.000000     0.000000     0.000000
   47     1.000000   180.000000     0.707107     0.000000    -0.707107     0.000000     0.000000     0.000000
   48    -1.000000   180.000000     0.707107     0.000000    -0.707107     0.000000     0.000000     0.000000


--------------------------------------------------------------------------------------------------------




 Dimension of arrays:
   k-points           NKPTS =     80   k-points in BZ     NKDIM =     80   number of bands    NBANDS=     46
   number of dos      NEDOS =    301   number of ions     NIONS =      5
   non local maximal  LDIM  =      6   non local SUM 2l+1 LMDIM =     18
   total plane-waves  NPLWV =  13824
   max r-space proj   IRMAX =      1   max aug-charges    IRDMAX= 118030
   dimension x,y,z NGX =    24 NGY =   24 NGZ =   24
   dimension x,y,z NGXF=    48 NGYF=   48 NGZF=   48
   support grid    NGXF=    96 NGYF=   96 NGZF=   96
   ions per type =               1   1   3
   NGX,Y,Z   is equivalent  to a cutoff of  10.37, 10.37, 10.37 a.u.
   NGXF,Y,Z  is equivalent  to a cutoff of  20.75, 20.75, 20.75 a.u.

 SYSTEM =  SrVO3 	                                 
 POSCAR =  Sr V O                                  

 Startparameter for this run:
   NWRITE =      2    write-flag & timer
   PREC   = normal    normal or accurate (medium, high low for compatibility)
   ISTART =      1    job   : 0-new  1-cont  2-samecut
   ICHARG =     11    charge: 1-file 2-atom 10-const
   ISPIN  =      1    spin polarized calculation?
   LNONCOLLINEAR =      F non collinear calculations
   LSORBIT =      F    spin-orbit coupling
   INIWAV =      1    electr: 0-lowe 1-rand  2-diag
   LASPH  =      F    aspherical Exc in radial PAW
   METAGGA=      F    non-selfconsistent MetaGGA calc.

 Electronic Relaxation 1
   ENCUT  =  600.0 eV  44.10 Ry    6.64 a.u.   7.68  7.68  7.68*2*pi/ulx,y,z
   ENINI  =  600.0     initial cutoff
   ENAUG  =  605.4 eV  augmentation charge cutoff
   NELM   =     60;   NELMIN=  2; NELMDL=  0     # of ELM steps 
   EDIFF  = 0.1E-03   stopping-criterion for ELM
   LREAL  =      F    real-space projection
   NLSPLINE    = F    spline interpolate recip. space projectors
   LCOMPAT=      F    compatible to vasp.4.4
   GGA_COMPAT  = T    GGA compatible to vasp.4.4-vasp.4.6
   LMAXPAW     = -100 max onsite density
   LMAXMIX     =    4 max onsite mixed and CHGCAR
   VOSKOWN=      0    Vosko Wilk Nusair interpolation
   ROPT   =    0.00000   0.00000   0.00000
 Ionic relaxation
   EDIFFG = 0.1E-02   stopping-criterion for IOM
   NSW    =      0    number of steps for IOM
   NBLOCK =      1;   KBLOCK =      1    inner block; outer block 
   IBRION =     -1    ionic relax: 0-MD 1-quasi-New 2-CG
   NFREE  =      0    steps in history (QN), initial steepest desc. (CG)
   ISIF   =      2    stress and relaxation
   IWAVPR =      0    prediction:  0-non 1-charg 2-wave 3-comb
   ISYM   =      2    0-nonsym 1-usesym 2-fastsym
   LCORR  =      T    Harris-Foulkes like correction to forces

   POTIM  = 0.5000    time-step for ionic-motion
   TEIN   =    0.0    initial temperature
   TEBEG  =    0.0;   TEEND  =   0.0 temperature during run
   SMASS  =  -3.00    Nose mass-parameter (am)
   estimated Nose-frequenzy (Omega)   =  0.10E-29 period in steps =****** mass=  -0.338E-27a.u.
   SCALEE = 1.0000    scale energy and forces
   NPACO  =    256;   APACO  = 16.0  distance and # of slots for P.C.
   PSTRESS=    0.0 pullay stress

  Mass of Ions in am
   POMASS =  87.62 50.94 16.00
  Ionic Valenz
   ZVAL   =  10.00  5.00  6.00
  Atomic Wigner-Seitz radii
   RWIGS  =  -1.00 -1.00 -1.00
  virtual crystal weights 
   VCA    =   1.00  1.00  1.00
   NELECT =      33.0000    total number of electrons
   NUPDOWN=      -1.0000    fix difference up-down

 DOS related values:
   EMIN   =  10.00;   EMAX   =-10.00  energy-range for DOS
   EFERMI =   0.00
   ISMEAR =     1;   SIGMA  =   0.20  broadening in eV -4-tet -1-fermi 0-gaus

 Electronic relaxation 2 (details)
   IALGO  =     48    algorithm
   LDIAG  =      T    sub-space diagonalisation (order eigenvalues)
   LSUBROT=      F    optimize rotation matrix (better conditioning)
   TURBO    =      0    0=normal 1=particle mesh
   IRESTART =      0    0=no restart 2=restart with 2 vectors
   NREBOOT  =      0    no. of reboots
   NMIN     =      0    reboot dimension
   EREF     =   0.00    reference energy to select bands
   IMIX   =      4    mixing-type and parameters
     AMIX     =   0.40;   BMIX     =  1.00
     AMIX_MAG =   1.60;   BMIX_MAG =  1.00
     AMIN     =   0.10
     WC   =   100.;   INIMIX=   1;  MIXPRE=   1;  MAXMIX= -45

 Intra band minimization:
   WEIMIN = 0.0000     energy-eigenvalue tresh-hold
   EBREAK =  0.54E-06  absolut break condition
   DEPER  =   0.30     relativ break condition  

   TIME   =   0.40     timestep for ELM

  volume/ion in A,a.u.               =      11.38        76.81
  Fermi-wavevector in a.u.,A,eV,Ry     =   1.365143  2.579746 25.356027  1.863615
  Thomas-Fermi vector in A             =   2.491397
 
 Write flags
   LWAVE        =      T    write WAVECAR
   LDOWNSAMPLE  =      F    k-point downsampling of WAVECAR
   LCHARG       =      T    write CHGCAR
   LVTOT        =      F    write LOCPOT, total local potential
   LVHAR        =      F    write LOCPOT, Hartree potential only
   LELF         =      F    write electronic localiz. function (ELF)
   LORBIT       =     11    0 simple, 1 ext, 2 COOP (PROOUT), +10 PAW based schemes


 Dipole corrections
   LMONO  =      F    monopole corrections only (constant potential shift)
   LDIPOL =      F    correct potential (dipole corrections)
   IDIPOL =      0    1-x, 2-y, 3-z, 4-all directions 
   EPSILON=  1.0000000 bulk dielectric constant

 Exchange correlation treatment:
   GGA     =    PS    GGA type
   LEXCH   =    14    internal setting for exchange type
   VOSKOWN=      0    Vosko Wilk Nusair interpolation
   LHFCALC =     F    Hartree Fock is set to
   LHFONE  =     F    Hartree Fock one center treatment
   AEXX    =    0.0000 exact exchange contribution

 Linear response parameters
   LEPSILON=     F    determine dielectric tensor
   LRPA    =     F    only Hartree local field effects (RPA)
   LNABLA  =     F    use nabla operator in PAW spheres
   LVEL    =     F    velocity operator in full k-point grid
   LINTERFAST=   F  fast interpolation
   KINTER  =     0    interpolate to denser k-point grid
   CSHIFT  =0.1000    complex shift for real part using Kramers Kronig
   OMEGAMAX=  -1.0    maximum frequency
   DEG_THRESHOLD= 0.2000000E-02 threshold for treating states as degnerate
   RTIME   =   -0.100 relaxation time in fs
  (WPLASMAI=    0.000 imaginary part of plasma frequency in eV, 0.658/RTIME)
   DFIELD  = 0.0000000 0.0000000 0.0000000 field for delta impulse in time
 
 Orbital magnetization related:
   ORBITALMAG=     F  switch on orbital magnetization
   LCHIMAG   =     F  perturbation theory with respect to B field
   DQ        =  0.001000  dq finite difference perturbation B field
   LLRAUG    =     F  two centre corrections for induced B field



--------------------------------------------------------------------------------------------------------


 Static calculation
 charge density and potential remain constant during run
 non-spin polarized calculation
 RMM-DIIS sequential band-by-band
 perform sub-space diagonalisation
    before iterative eigenvector-optimisation
 no mixing
 using additional bands           29
 reciprocal scheme for non local part
 use partial core corrections
 calculate Harris-corrections to forces 
   (improved forces if not selfconsistent)
 use gradient corrections 
 WARNING: stress and forces are not correct
  (second derivative of E(xc) not defined)
 use of overlap-Matrix (Vanderbilt PP)
 Methfessel and Paxton  Order N= 1 SIGMA  =   0.20


--------------------------------------------------------------------------------------------------------


  energy-cutoff  :      600.00
  volume of cell :       56.91
      direct lattice vectors                 reciprocal lattice vectors
     3.846520000  0.000000000  0.000000000     0.259975250  0.000000000  0.000000000
     0.000000000  3.846520000  0.000000000     0.000000000  0.259975250  0.000000000
     0.000000000  0.000000000  3.846520000     0.000000000  0.000000000  0.259975250

  length of vectors
     3.846520000  3.846520000  3.846520000     0.259975250  0.259975250  0.259975250


 
 old parameters found on file WAVECAR:
  energy-cutoff  :      600.00
  volume of cell :       56.91
      direct lattice vectors                 reciprocal lattice vectors
     3.846520000  0.000000000  0.000000000     0.259975250  0.000000000  0.000000000
     0.000000000  3.846520000  0.000000000     0.000000000  0.259975250  0.000000000
     0.000000000  0.000000000  3.846520000     0.000000000  0.000000000  0.259975250

  length of vectors

 
 k-points in units of 2pi/SCALE and weight: KPOINTS generated by PyProcar           
   0.00000000  0.00000000  0.00000000       0.013
   0.02631579  0.00000000  0.00000000       0.013
   0.05263158  0.00000000  0.00000000       0.013
   0.07894737  0.00000000  0.00000000       0.013
   0.10526316  0.00000000  0.00000000       0.013
   0.13157895  0.00000000  0.00000000       0.013
   0.15789474  0.00000000  0.00000000       0.013
   0.18421053  0.00000000  0.00000000       0.013
   0.21052632  0.00000000  0.00000000       0.013
   0.23684211  0.00000000  0.00000000       0.013
   0.26315789  0.00000000  0.00000000       0.013
   0.28947368  0.00000000  0.00000000       0.013
   0.31578947  0.00000000  0.00000000       0.013
   0.34210526  0.00000000  0.00000000       0.013
   0.36842105  0.00000000  0.00000000       0.013
   0.39473684  0.00000000  0.00000000       0.013
   0.42105263  0.00000000  0.00000000       0.013
   0.44736842  0.00000000  0.00000000       0.013
   0.47368421  0.00000000  0.00000000       0.013
   0.50000000  0.00000000  0.00000000       0.013
   0.50000000  0.00000000  0.00000000       0.013
   0.50000000  0.02631579  0.00000000       0.013
   0.50000000  0.05263158  0.00000000       0.013
   0.50000000  0.07894737  0.00000000       0.013
   0.50000000  0.10526316  0.00000000       0.013
   0.50000000  0.13157895  0.00000000       0.013
   0.50000000  0.15789474  0.00000000       0.013
   0.50000000  0.18421053  0.00000000       0.013
   0.50000000  0.21052632  0.00000000       0.013
   0.50000000  0.23684211  0.00000000       0.013
   0.50000000  0.26315789  0.00000000       0.013
   0.50000000  0.28947368  0.00000000       0.013
   0.50000000  0.31578947  0.00000000       0.013
   0.50000000  0.34210526  0.00000000       0.013
   0.50000000  0.36842105  0.00000000       0.013
   0.50000000  0.39473684  0.00000000       0.013
   0.50000000  0.42105263  0.00000000       0.013
   0.50000000  0.44736842  0.00000000       0.013
   0.50000000  0.47368421  0.00000000       0.013
   0.50000000  0.50000000  0.00000000       0.013
   0.50000000  0.50000000  0.00000000       0.013
   0.47368421  0.47368421  0.00000000       0.013
   0.44736842  0.44736842  0.00000000       0.013
   0.42105263  0.42105263  0.00000000       0.013
   0.39473684  0.39473684  0.00000000       0.013
   0.36842105  0.36842105  0.00000000       0.013
   0.34210526  0.34210526  0.00000000       0.013
   0.31578947  0.31578947  0.00000000       0.013
   0.28947368  0.28947368  0.00000000       0.013
   0.26315789  0.26315789  0.00000000       0.013
   0.23684211  0.23684211  0.00000000       0.013
   0.21052632  0.21052632  0.00000000       0.013
   0.18421053  0.18421053  0.00000000       0.013
   0.15789474  0.15789474  0.00000000       0.013
   0.13157895  0.13157895  0.00000000       0.013
   0.10526316  0.10526316  0.00000000       0.013
   0.07894737  0.07894737  0.00000000       0.013
   0.05263158  0.05263158  0.00000000       0.013
   0.02631579  0.02631579  0.00000000       0.013
   0.00000000  0.00000000  0.00000000       0.013
   0.00000000  0.00000000  0.00000000       0.013
   0.02631579  0.02631579  0.02631579       0.013
   0.05263158  0.05263158  0.05263158       0.013
   0.07894737  0.07894737  0.07894737       0.013
   0.10526316  0.10526316  0.10526316       0.013
   0.13157895  0.13157895  0.13157895       0.013
   0.15789474  0.15789474  0.15789474       0.013
   0.18421053  0.18421053  0.18421053       0.013
   0.21052632  0.21052632  0.21052632       0.013
   0.23684211  0.23684211  0.23684211       0.013
   0.26315789  0.26315789  0.26315789       0.013
   0.28947368  0.28947368  0.28947368       0.013
   0.31578947  0.31578947  0.31578947       0.013
   0.34210526  0.34210526  0.34210526       0.013
   0.36842105  0.36842105  0.36842105       0.013
   0.39473684  0.39473684  0.39473684       0.013
   0.42105263  0.42105263  0.42105263       0.013
   0.44736842  0.44736842  0.44736842       0.013
   0.47368421  0.47368421  0.47368421       0.013
   0.50000000  0.50000000  0.50000000       0.013
 
 k-points in reciprocal lattice and weights: KPOINTS generated by PyProcar           
   0.00000000  0.00000000  0.00000000       0.013
   0.02631579  0.00000000  0.00000000       0.013
   0.05263158  0.00000000  0.00000000       0.013
   0.07894737  0.00000000  0.00000000       0.013
   0.10526316  0.00000000  0.00000000       0.013
   0.13157895  0.00000000  0.00000000       0.013
   0.15789474  0.00000000  0.00000000       0.013
   0.18421053  0.00000000  0.00000000       0.013
   0.21052632  0.00000000  0.00000000       0.013
   0.23684211  0.00000000  0.00000000       0.013
   0.26315789  0.00000000  0.00000000       0.013
   0.28947368  0.00000000  0.00000000       0.013
   0.31578947  0.00000000  0.00000000       0.013
   0.34210526  0.00000000  0.00000000       0.013
   0.36842105  0.00000000  0.00000000       0.013
   0.39473684  0.00000000  0.00000000       0.013
   0.42105263  0.00000000  0.00000000       0.013
   0.44736842  0.00000000  0.00000000       0.013
   0.47368421  0.00000000  0.00000000       0.013
   0.50000000  0.00000000  0.00000000       0.013
   0.50000000  0.00000000  0.00000000       0.013
   0.50000000  0.02631579  0.00000000       0.013
   0.50000000  0.05263158  0.00000000       0.013
   0.50000000  0.07894737  0.00000000       0.013
   0.50000000  0.10526316  0.00000000       0.013
   0.50000000  0.13157895  0.00000000       0.013
   0.50000000  0.15789474  0.00000000       0.013
   0.50000000  0.18421053  0.00000000       0.013
   0.50000000  0.21052632  0.00000000       0.013
   0.50000000  0.23684211  0.00000000       0.013
   0.50000000  0.26315789  0.00000000       0.013
   0.50000000  0.28947368  0.00000000       0.013
   0.50000000  0.31578947  0.00000000       0.013
   0.50000000  0.34210526  0.00000000       0.013
   0.50000000  0.36842105  0.00000000       0.013
   0.50000000  0.39473684  0.00000000       0.013
   0.50000000  0.42105263  0.00000000       0.013
   0.50000000  0.44736842  0.00000000       0.013
   0.50000000  0.47368421  0.00000000       0.013
   0.50000000  0.50000000  0.00000000       0.013
   0.50000000  0.50000000  0.00000000       0.013
   0.47368421  0.47368421  0.00000000       0.013
   0.44736842  0.44736842  0.00000000       0.013
   0.42105263  0.42105263  0.00000000       0.013
   0.39473684  0.39473684  0.00000000       0.013
   0.36842105  0.36842105  0.00000000       0.013
   0.34210526  0.34210526  0.00000000       0.013
   0.31578947  0.31578947  0.00000000       0.013
   0.28947368  0.28947368  0.00000000       0.013
   0.26315789  0.26315789  0.00000000       0.013
   0.23684211  0.23684211  0.00000000       0.013
   0.21052632  0.21052632  0.00000000       0.013
   0.18421053  0.18421053  0.00000000       0.013
   0.15789474  0.15789474  0.00000000       0.013
   0.13157895  0.13157895  0.00000000       0.013
   0.10526316  0.10526316  0.00000000       0.013
   0.07894737  0.07894737  0.00000000       0.013
   0.05263158  0.05263158  0.00000000       0.013
   0.02631579  0.02631579  0.00000000       0.013
   0.00000000  0.00000000  0.00000000       0.013
   0.00000000  0.00000000  0.00000000       0.013
   0.02631579  0.02631579  0.02631579       0.013
   0.05263158  0.05263158  0.05263158       0.013
   0.07894737  0.07894737  0.07894737       0.013
   0.10526316  0.10526316  0.10526316       0.013
   0.13157895  0.13157895  0.13157895       0.013
   0.15789474  0.15789474  0.15789474       0.013
   0.18421053  0.18421053  0.18421053       0.013
   0.21052632  0.21052632  0.21052632       0.013
   0.23684211  0.23684211  0.23684211       0.013
   0.26315789  0.26315789  0.26315789       0.013
   0.28947368  0.28947368  0.28947368       0.013
   0.31578947  0.31578947  0.31578947       0.013
   0.34210526  0.34210526  0.34210526       0.013
   0.36842105  0.36842105  0.36842105       0.013
   0.39473684  0.39473684  0.39473684       0.013
   0.42105263  0.42105263  0.42105263       0.013
   0.44736842  0.44736842  0.44736842       0.013
   0.47368421  0.47368421  0.47368421       0.013
   0.50000000  0.50000000  0.50000000       0.013
 
 position of ions in fractional coordinates (direct lattice) 
   0.00000000  0.00000000  0.00000000
   0.50000000  0.50000000  0.50000000
   0.50000000  0.50000000  0.00000000
   0.50000000  0.00000000  0.50000000
   0.00000000  0.50000000  0.50000000
 
 position of ions in cartesian coordinates  (Angst):
   0.00000000  0.00000000  0.00000000
   1.92326000  1.92326000  1.92326000
   1.92326000  1.92326000  0.00000000
   1.92326000  0.00000000  1.92326000
   0.00000000  1.92326000  1.92326000
 


--------------------------------------------------------------------------------------------------------


 k-point  1 :   0.0000 0.0000 0.0000  plane waves:    1935
 k-point  2 :   0.0263 0.0000 0.0000  plane waves:    1899
 k-point  3 :   0.0526 0.0000 0.0000  plane waves:    1899
 k-point  4 :   0.0789 0.0000 0.0000  plane waves:    1895
 k-point  5 :   0.1053 0.0000 0.0000  plane waves:    1895
 k-point  6 :   0.1316 0.0000 0.0000  plane waves:    1895
 k-point  7 :   0.1579 0.0000 0.0000  plane waves:    1891
 k-point  8 :   0.1842 0.0000 0.0000  plane waves:    1899
 k-point  9 :   0.2105 0.0000 0.0000  plane waves:    1899
 k-point 10 :   0.2368 0.0000 0.0000  plane waves:    1907
 k-point 11 :   0.2632 0.0000 0.0000  plane waves:    1907
 k-point 12 :   0.2895 0.0000 0.0000  plane waves:    1907
 k-point 13 :   0.3158 0.0000 0.0000  plane waves:    1915
 k-point 14 :   0.3421 0.0000 0.0000  plane waves:    1916
 k-point 15 :   0.3684 0.0000 0.0000  plane waves:    1908
 k-point 16 :   0.3947 0.0000 0.0000  plane waves:    1912
 k-point 17 :   0.4211 0.0000 0.0000  plane waves:    1904
 k-point 18 :   0.4474 0.0000 0.0000  plane waves:    1908
 k-point 19 :   0.4737 0.0000 0.0000  plane waves:    1904
 k-point 20 :   0.5000 0.0000 0.0000  plane waves:    1888
 k-point 21 :   0.5000 0.0000 0.0000  plane waves:    1888
 k-point 22 :   0.5000 0.0263 0.0000  plane waves:    1896
 k-point 23 :   0.5000 0.0526 0.0000  plane waves:    1900
 k-point 24 :   0.5000 0.0789 0.0000  plane waves:    1900
 k-point 25 :   0.5000 0.1053 0.0000  plane waves:    1902
 k-point 26 :   0.5000 0.1316 0.0000  plane waves:    1902
 k-point 27 :   0.5000 0.1579 0.0000  plane waves:    1894
 k-point 28 :   0.5000 0.1842 0.0000  plane waves:    1896
 k-point 29 :   0.5000 0.2105 0.0000  plane waves:    1896
 k-point 30 :   0.5000 0.2368 0.0000  plane waves:    1914
 k-point 31 :   0.5000 0.2632 0.0000  plane waves:    1914
 k-point 32 :   0.5000 0.2895 0.0000  plane waves:    1900
 k-point 33 :   0.5000 0.3158 0.0000  plane waves:    1900
 k-point 34 :   0.5000 0.3421 0.0000  plane waves:    1908
 k-point 35 :   0.5000 0.3684 0.0000  plane waves:    1910
 k-point 36 :   0.5000 0.3947 0.0000  plane waves:    1910
 k-point 37 :   0.5000 0.4211 0.0000  plane waves:    1910
 k-point 38 :   0.5000 0.4474 0.0000  plane waves:    1918
 k-point 39 :   0.5000 0.4737 0.0000  plane waves:    1924
 k-point 40 :   0.5000 0.5000 0.0000  plane waves:    1924
 k-point 41 :   0.5000 0.5000 0.0000  plane waves:    1924
 k-point 42 :   0.4737 0.4737 0.0000  plane waves:    1924
 k-point 43 :   0.4474 0.4474 0.0000  plane waves:    1912
 k-point 44 :   0.4211 0.4211 0.0000  plane waves:    1913
 k-point 45 :   0.3947 0.3947 0.0000  plane waves:    1901
 k-point 46 :   0.3684 0.3684 0.0000  plane waves:    1897
 k-point 47 :   0.3421 0.3421 0.0000  plane waves:    1897
 k-point 48 :   0.3158 0.3158 0.0000  plane waves:    1887
 k-point 49 :   0.2895 0.2895 0.0000  plane waves:    1895
 k-point 50 :   0.2632 0.2632 0.0000  plane waves:    1897
 k-point 51 :   0.2368 0.2368 0.0000  plane waves:    1901
 k-point 52 :   0.2105 0.2105 0.0000  plane waves:    1897
 k-point 53 :   0.1842 0.1842 0.0000  plane waves:    1901
 k-point 54 :   0.1579 0.1579 0.0000  plane waves:    1897
 k-point 55 :   0.1316 0.1316 0.0000  plane waves:    1889
 k-point 56 :   0.1053 0.1053 0.0000  plane waves:    1897
 k-point 57 :   0.0789 0.0789 0.0000  plane waves:    1895
 k-point 58 :   0.0526 0.0526 0.0000  plane waves:    1899
 k-point 59 :   0.0263 0.0263 0.0000  plane waves:    1901
 k-point 60 :   0.0000 0.0000 0.0000  plane waves:    1935
 k-point 61 :   0.0000 0.0000 0.0000  plane waves:    1935
 k-point 62 :   0.0263 0.0263 0.0263  plane waves:    1899
 k-point 63 :   0.0526 0.0526 0.0526  plane waves:    1893
 k-point 64 :   0.0789 0.0789 0.0789  plane waves:    1896
 k-point 65 :   0.1053 0.1053 0.1053  plane waves:    1899
 k-point 66 :   0.1316 0.1316 0.1316  plane waves:    1899
 k-point 67 :   0.1579 0.1579 0.1579  plane waves:    1905
 k-point 68 :   0.1842 0.1842 0.1842  plane waves:    1899
 k-point 69 :   0.2105 0.2105 0.2105  plane waves:    1893
 k-point 70 :   0.2368 0.2368 0.2368  plane waves:    1905
 k-point 71 :   0.2632 0.2632 0.2632  plane waves:    1902
 k-point 72 :   0.2895 0.2895 0.2895  plane waves:    1908
 k-point 73 :   0.3158 0.3158 0.3158  plane waves:    1899
 k-point 74 :   0.3421 0.3421 0.3421  plane waves:    1884
 k-point 75 :   0.3684 0.3684 0.3684  plane waves:    1887
 k-point 76 :   0.3947 0.3947 0.3947  plane waves:    1884
 k-point 77 :   0.4211 0.4211 0.4211  plane waves:    1890
 k-point 78 :   0.4474 0.4474 0.4474  plane waves:    1880
 k-point 79 :   0.4737 0.4737 0.4737  plane waves:    1880
 k-point 80 :   0.5000 0.5000 0.5000  plane waves:    1904

 maximum number of plane-waves:      1935
 maximum index in each direction: 
   IXMAX=    7   IYMAX=    7   IZMAX=    7
   IXMIN=   -8   IYMIN=   -8   IZMIN=   -8


 total amount of memory used by VASP MPI-rank0   222431. kBytes
=======================================================================

   base      :      30000. kBytes
   nonl-proj :      67028. kBytes
   grid      :       7861. kBytes
   one-center:         77. kBytes
   wavefun   :     117465. kBytes
 
     INWAV:  cpu time    0.1518: real time    0.1589
 initial charge density was supplied:
 number of electron      33.0000001 magnetization 
 keeping initial charge density in first step


--------------------------------------------------------------------------------------------------------


 Maximum index for augmentation-charges       114425 (set IRDMAX)


--------------------------------------------------------------------------------------------------------


 First call to EWALD:  gamma=   0.461
 Maximum number of real-space cells 3x 3x 3
 Maximum number of reciprocal cells 3x 3x 3

    FEWALD:  cpu time    0.0044: real time    0.0011


--------------------------------------- Iteration      1(   1)  ---------------------------------------


    POTLOK:  cpu time    0.0798: real time    0.0443
    SETDIJ:  cpu time    0.1045: real time    0.0547
    EDDIAG:  cpu time    2.8191: real time    1.5068
  RMM-DIIS:  cpu time   14.4688: real time    7.4212
    ORTHCH:  cpu time    0.1273: real time    0.0687
       DOS:  cpu time    0.0138: real time    0.0068
    --------------------------------------------
      LOOP:  cpu time   17.6133: real time    9.1025

 eigenvalue-minimisations  : 11394
 total energy-change (2. order) :-0.3290125E+02  (-0.2567375E+02)
 number of electron      33.0000001 magnetization 
 augmentation part       33.0000001 magnetization 

 Free energy of the ion-electron system (eV)
  ---------------------------------------------------
  alpha Z        PSCENC =       180.95685896
  Ewald energy   TEWEN  =     -2047.90029510
  -Hartree energ DENC   =      -423.93455099
  -exchange      EXHF   =         0.00000000
  -V(xc)+E(xc)   XCENC  =        77.81437220
  PAW double counting   =      3879.30280812    -3828.06107623
  entropy T*S    EENTRO =        -0.00533488
  eigenvalues    EBANDS =      -177.72670414
  atomic energy  EATOM  =      2306.65267270
  Solvation  Ediel_sol  =         0.00000000
  ---------------------------------------------------
  free energy    TOTEN  =       -32.90124938 eV

  energy without entropy =      -32.89591450  energy(sigma->0) =      -32.89947109


--------------------------------------------------------------------------------------------------------




--------------------------------------- Iteration      1(   2)  ---------------------------------------


    EDDIAG:  cpu time    2.7092: real time    1.3747
  RMM-DIIS:  cpu time   13.5709: real time    6.8734
    ORTHCH:  cpu time    0.1061: real time    0.0538
       DOS:  cpu time    0.0140: real time    0.0069
    --------------------------------------------
      LOOP:  cpu time   16.4002: real time    8.3087

 eigenvalue-minimisations  : 10945
 total energy-change (2. order) :-0.4429264E+01  (-0.1394637E+01)
 number of electron      33.0000001 magnetization 
 augmentation part       33.0000001 magnetization 

 Free energy of the ion-electron system (eV)
  ---------------------------------------------------
  alpha Z        PSCENC =       180.95685896
  Ewald energy   TEWEN  =     -2047.90029510
  -Hartree energ DENC   =      -423.93455099
  -exchange      EXHF   =         0.00000000
  -V(xc)+E(xc)   XCENC  =        77.81437220
  PAW double counting   =      3879.30280812    -3828.06107623
  entropy T*S    EENTRO =        -0.01018282
  eigenvalues    EBANDS =      -182.15111996
  atomic energy  EATOM  =      2306.65267270
  Solvation  Ediel_sol  =         0.00000000
  ---------------------------------------------------
  free energy    TOTEN  =       -37.33051314 eV

  energy without entropy =      -37.32033032  energy(sigma->0) =      -37.32711887


--------------------------------------------------------------------------------------------------------




--------------------------------------- Iteration      1(   3)  ---------------------------------------


    EDDIAG:  cpu time    2.7088: real time    1.3751
  RMM-DIIS:  cpu time   14.2954: real time    7.2526
    ORTHCH:  cpu time    0.1183: real time    0.0615
       DOS:  cpu time    0.0134: real time    0.0066
    --------------------------------------------
      LOOP:  cpu time   17.1359: real time    8.6958

 eigenvalue-minimisations  : 11464
 total energy-change (2. order) :-0.3709191E+00  (-0.2040966E+00)
 number of electron      33.0000001 magnetization 
 augmentation part       33.0000001 magnetization 

 Free energy of the ion-electron system (eV)
  ---------------------------------------------------
  alpha Z        PSCENC =       180.95685896
  Ewald energy   TEWEN  =     -2047.90029510
  -Hartree energ DENC   =      -423.93455099
  -exchange      EXHF   =         0.00000000
  -V(xc)+E(xc)   XCENC  =        77.81437220
  PAW double counting   =      3879.30280812    -3828.06107623
  entropy T*S    EENTRO =        -0.01205561
  eigenvalues    EBANDS =      -182.52016623
  atomic energy  EATOM  =      2306.65267270
  Solvation  Ediel_sol  =         0.00000000
  ---------------------------------------------------
  free energy    TOTEN  =       -37.70143221 eV

  energy without entropy =      -37.68937660  energy(sigma->0) =      -37.69741367


--------------------------------------------------------------------------------------------------------




--------------------------------------- Iteration      1(   4)  ---------------------------------------


    EDDIAG:  cpu time    2.7012: real time    1.3722
  RMM-DIIS:  cpu time   16.2544: real time    8.3358
    ORTHCH:  cpu time    0.1066: real time    0.0543
       DOS:  cpu time    0.0133: real time    0.0065
    --------------------------------------------
      LOOP:  cpu time   19.0754: real time    9.7689

 eigenvalue-minimisations  : 12261
 total energy-change (2. order) :-0.4654142E-01  (-0.4191525E-01)
 number of electron      33.0000001 magnetization 
 augmentation part       33.0000001 magnetization 

 Free energy of the ion-electron system (eV)
  ---------------------------------------------------
  alpha Z        PSCENC =       180.95685896
  Ewald energy   TEWEN  =     -2047.90029510
  -Hartree energ DENC   =      -423.93455099
  -exchange      EXHF   =         0.00000000
  -V(xc)+E(xc)   XCENC  =        77.81437220
  PAW double counting   =      3879.30280812    -3828.06107623
  entropy T*S    EENTRO =        -0.01203827
  eigenvalues    EBANDS =      -182.56672499
  atomic energy  EATOM  =      2306.65267270
  Solvation  Ediel_sol  =         0.00000000
  ---------------------------------------------------
  free energy    TOTEN  =       -37.74797362 eV

  energy without entropy =      -37.73593535  energy(sigma->0) =      -37.74396087


--------------------------------------------------------------------------------------------------------




--------------------------------------- Iteration      1(   5)  ---------------------------------------


    EDDIAG:  cpu time    2.9149: real time    1.5135
  RMM-DIIS:  cpu time   17.1017: real time    8.8895
    ORTHCH:  cpu time    0.1060: real time    0.0538
       DOS:  cpu time    0.0138: real time    0.0066
    --------------------------------------------
      LOOP:  cpu time   20.1364: real time   10.4633

 eigenvalue-minimisations  : 11860
 total energy-change (2. order) :-0.9806196E-02  (-0.7979107E-02)
 number of electron      33.0000001 magnetization 
 augmentation part       33.0000001 magnetization 

 Free energy of the ion-electron system (eV)
  ---------------------------------------------------
  alpha Z        PSCENC =       180.95685896
  Ewald energy   TEWEN  =     -2047.90029510
  -Hartree energ DENC   =      -423.93455099
  -exchange      EXHF   =         0.00000000
  -V(xc)+E(xc)   XCENC  =        77.81437220
  PAW double counting   =      3879.30280812    -3828.06107623
  entropy T*S    EENTRO =        -0.01202284
  eigenvalues    EBANDS =      -182.57654662
  atomic energy  EATOM  =      2306.65267270
  Solvation  Ediel_sol  =         0.00000000
  ---------------------------------------------------
  free energy    TOTEN  =       -37.75777982 eV

  energy without entropy =      -37.74575698  energy(sigma->0) =      -37.75377221


--------------------------------------------------------------------------------------------------------




--------------------------------------- Iteration      1(   6)  ---------------------------------------


    EDDIAG:  cpu time    2.8225: real time    1.4492
  RMM-DIIS:  cpu time   14.1016: real time    7.1695
    ORTHCH:  cpu time    0.1085: real time    0.0552
       DOS:  cpu time    0.0139: real time    0.0067
    --------------------------------------------
      LOOP:  cpu time   17.0465: real time    8.6806

 eigenvalue-minimisations  : 10873
 total energy-change (2. order) :-0.3261086E-02  (-0.2273063E-02)
 number of electron      33.0000001 magnetization 
 augmentation part       33.0000001 magnetization 

 Free energy of the ion-electron system (eV)
  ---------------------------------------------------
  alpha Z        PSCENC =       180.95685896
  Ewald energy   TEWEN  =     -2047.90029510
  -Hartree energ DENC   =      -423.93455099
  -exchange      EXHF   =         0.00000000
  -V(xc)+E(xc)   XCENC  =        77.81437220
  PAW double counting   =      3879.30280812    -3828.06107623
  entropy T*S    EENTRO =        -0.01202097
  eigenvalues    EBANDS =      -182.57980957
  atomic energy  EATOM  =      2306.65267270
  Solvation  Ediel_sol  =         0.00000000
  ---------------------------------------------------
  free energy    TOTEN  =       -37.76104091 eV

  energy without entropy =      -37.74901994  energy(sigma->0) =      -37.75703392


--------------------------------------------------------------------------------------------------------




--------------------------------------- Iteration      1(   7)  ---------------------------------------


    EDDIAG:  cpu time    2.7491: real time    1.3981
  RMM-DIIS:  cpu time   12.7880: real time    6.5323
    ORTHCH:  cpu time    0.1112: real time    0.0562
       DOS:  cpu time    0.0144: real time    0.0074
    --------------------------------------------
      LOOP:  cpu time   15.6627: real time    7.9940

 eigenvalue-minimisations  :  9689
 total energy-change (2. order) :-0.1044345E-02  (-0.7217009E-03)
 number of electron      33.0000001 magnetization 
 augmentation part       33.0000001 magnetization 

 Free energy of the ion-electron system (eV)
  ---------------------------------------------------
  alpha Z        PSCENC =       180.95685896
  Ewald energy   TEWEN  =     -2047.90029510
  -Hartree energ DENC   =      -423.93455099
  -exchange      EXHF   =         0.00000000
  -V(xc)+E(xc)   XCENC  =        77.81437220
  PAW double counting   =      3879.30280812    -3828.06107623
  entropy T*S    EENTRO =        -0.01202039
  eigenvalues    EBANDS =      -182.58085450
  atomic energy  EATOM  =      2306.65267270
  Solvation  Ediel_sol  =         0.00000000
  ---------------------------------------------------
  free energy    TOTEN  =       -37.76208525 eV

  energy without entropy =      -37.75006487  energy(sigma->0) =      -37.75807846


--------------------------------------------------------------------------------------------------------




--------------------------------------- Iteration      1(   8)  ---------------------------------------


    EDDIAG:  cpu time    2.9809: real time    1.5427
  RMM-DIIS:  cpu time   12.1209: real time    6.2109
    ORTHCH:  cpu time    0.1110: real time    0.0590
       DOS:  cpu time    0.0138: real time    0.0066
    --------------------------------------------
      LOOP:  cpu time   15.2266: real time    7.8192

 eigenvalue-minimisations  :  8829
 total energy-change (2. order) :-0.3226133E-03  (-0.2282609E-03)
 number of electron      33.0000001 magnetization 
 augmentation part       33.0000001 magnetization 

 Free energy of the ion-electron system (eV)
  ---------------------------------------------------
  alpha Z        PSCENC =       180.95685896
  Ewald energy   TEWEN  =     -2047.90029510
  -Hartree energ DENC   =      -423.93455099
  -exchange      EXHF   =         0.00000000
  -V(xc)+E(xc)   XCENC  =        77.81437220
  PAW double counting   =      3879.30280812    -3828.06107623
  entropy T*S    EENTRO =        -0.01202023
  eigenvalues    EBANDS =      -182.58117727
  atomic energy  EATOM  =      2306.65267270
  Solvation  Ediel_sol  =         0.00000000
  ---------------------------------------------------
  free energy    TOTEN  =       -37.76240786 eV

  energy without entropy =      -37.75038763  energy(sigma->0) =      -37.75840112


--------------------------------------------------------------------------------------------------------




--------------------------------------- Iteration      1(   9)  ---------------------------------------


    EDDIAG:  cpu time    2.7725: real time    1.4167
  RMM-DIIS:  cpu time   11.4644: real time    5.9105
    ORTHCH:  cpu time    0.2097: real time    0.1139
       DOS:  cpu time    0.0181: real time    0.0091
    --------------------------------------------
      LOOP:  cpu time   14.4648: real time    7.4502

 eigenvalue-minimisations  :  7872
 total energy-change (2. order) :-0.1035178E-03  (-0.7434188E-04)
 number of electron      33.0000001 magnetization 
 augmentation part       33.0000001 magnetization 

 Free energy of the ion-electron system (eV)
  ---------------------------------------------------
  alpha Z        PSCENC =       180.95685896
  Ewald energy   TEWEN  =     -2047.90029510
  -Hartree energ DENC   =      -423.93455099
  -exchange      EXHF   =         0.00000000
  -V(xc)+E(xc)   XCENC  =        77.81437220
  PAW double counting   =      3879.30280812    -3828.06107623
  entropy T*S    EENTRO =        -0.01202019
  eigenvalues    EBANDS =      -182.58128083
  atomic energy  EATOM  =      2306.65267270
  Solvation  Ediel_sol  =         0.00000000
  ---------------------------------------------------
  free energy    TOTEN  =       -37.76251138 eV

  energy without entropy =      -37.75049119  energy(sigma->0) =      -37.75850465


--------------------------------------------------------------------------------------------------------




--------------------------------------- Iteration      1(  10)  ---------------------------------------


    EDDIAG:  cpu time    2.9379: real time    1.5178
  RMM-DIIS:  cpu time   12.9974: real time    6.9181
    ORTHCH:  cpu time    0.1635: real time    0.0870
       DOS:  cpu time    0.0173: real time    0.0087
    --------------------------------------------
      LOOP:  cpu time   16.1160: real time    8.5316

 eigenvalue-minimisations  :  7135
 total energy-change (2. order) :-0.3159216E-04  (-0.2372470E-04)
 number of electron      33.0000001 magnetization 
 augmentation part       33.0000001 magnetization 

 Free energy of the ion-electron system (eV)
  ---------------------------------------------------
  alpha Z        PSCENC =       180.95685896
  Ewald energy   TEWEN  =     -2047.90029510
  -Hartree energ DENC   =      -423.93455099
  -exchange      EXHF   =         0.00000000
  -V(xc)+E(xc)   XCENC  =        77.81437220
  PAW double counting   =      3879.30280812    -3828.06107623
  entropy T*S    EENTRO =        -0.01202018
  eigenvalues    EBANDS =      -182.58131243
  atomic energy  EATOM  =      2306.65267270
  Solvation  Ediel_sol  =         0.00000000
  ---------------------------------------------------
  free energy    TOTEN  =       -37.76254297 eV

  energy without entropy =      -37.75052280  energy(sigma->0) =      -37.75853625


--------------------------------------------------------------------------------------------------------




 average (electrostatic) potential at core
  the test charge radii are     1.1929  1.2064  0.7215
  (the norm of the test charge is              1.0000)
       1 -34.8663       2 -42.8144       3 -71.6580       4 -71.6580       5 -71.6580
 
 
 
 E-fermi :   4.4481     XC(G=0): -11.7180     alpha+bet :-13.3782


 k-point     1 :       0.0000    0.0000    0.0000
  band No.  band energies     occupation 
      1     -29.0567      2.00000
      2     -14.2936      2.00000
      3     -13.0800      2.00000
      4     -13.0800      2.00000
      5     -11.0911      2.00000
      6     -11.0911      2.00000
      7     -11.0911      2.00000
      8       0.1759      2.00000
      9       0.1759      2.00000
     10       0.1759      2.00000
     11       2.1578      2.00000
     12       2.1578      2.00000
     13       2.1578      2.00000
     14       3.0046      2.00000
     15       3.0046      2.00000
     16       3.0046      2.00000
     17       4.2909      1.97277
     18       4.2909      1.97277
     19       4.2909      1.97277
     20       6.4677     -0.00000
     21       6.4677     -0.00000
     22       8.8316     -0.00000
     23       8.8316     -0.00000
     24       9.9266      0.00000
     25      11.8624      0.00000
     26      11.8624      0.00000
     27      11.8624      0.00000
     28      18.4638      0.00000
     29      20.8144      0.00000
     30      20.8144      0.00000
     31      20.8144      0.00000
     32      24.5529      0.00000
     33      24.5529      0.00000
     34      24.5529      0.00000
     35      25.0032      0.00000
     36      25.0032      0.00000
     37      25.4297      0.00000
     38      26.7539      0.00000
     39      26.7539      0.00000
     40      26.7539      0.00000
     41      30.4371      0.00000
     42      30.4371      0.00000
     43      34.3129      0.00000
     44      41.0342      0.00000
     45      54.3765      0.00000
     46      54.6064      0.00000

 k-point     2 :       0.0263    0.0000    0.0000
  band No.  band energies     occupation 
      1     -29.0564      2.00000
      2     -14.2935      2.00000
      3     -13.0821      2.00000
      4     -13.0797      2.00000
      5     -11.0907      2.00000
      6     -11.0907      2.00000
      7     -11.0856      2.00000
      8       0.1654      2.00000
      9       0.1755      2.00000
     10       0.1755      2.00000
     11       2.1448      2.00000
     12       2.1448      2.00000
     13       2.1505      2.00000
     14       2.9776      2.00000
     15       2.9959      2.00000
     16       2.9959      2.00000
     17       4.2917      1.97059
     18       4.3137      1.89931
     19       4.3137      1.89931
     20       6.4679     -0.00000
     21       6.4954     -0.00000
     22       8.8440     -0.00000
     23       8.8455     -0.00000
     24       9.9439      0.00000
     25      11.8610      0.00000
     26      11.8709      0.00000
     27      11.8709      0.00000
     28      18.4660      0.00000
     29      20.8116      0.00000
     30      20.8127      0.00000
     31      20.8127      0.00000
     32      24.4411      0.00000
     33      24.5398      0.00000
     34      24.5398      0.00000
     35      24.9407      0.00000
     36      25.0002      0.00000
     37      25.5549      0.00000
     38      26.7374      0.00000
     39      26.7565      0.00000
     40      26.7565      0.00000
     41      30.4210      0.00000
     42      30.4217      0.00000
     43      30.6566      0.00000
     44      34.2256      0.00000
     45      34.4628      0.00000
     46      40.5947      0.00000

 k-point     3 :       0.0526    0.0000    0.0000
  band No.  band energies     occupation 
      1     -29.0558      2.00000
      2     -14.2935      2.00000
      3     -13.0878      2.00000
      4     -13.0788      2.00000
      5     -11.0894      2.00000
      6     -11.0894      2.00000
      7     -11.0693      2.00000
      8       0.1341      2.00000
      9       0.1741      2.00000
     10       0.1741      2.00000
     11       2.1066      2.00000
     12       2.1066      2.00000
     13       2.1289      2.00000
     14       2.8988      2.00000
     15       2.9713      2.00000
     16       2.9713      2.00000
     17       4.2941      1.96395
     18       4.3788      1.54907
     19       4.3788      1.54906
     20       6.4684     -0.00000
     21       6.5749     -0.00000
     22       8.8808     -0.00000
     23       8.8867     -0.00000
     24       9.9953      0.00000
     25      11.8569      0.00000
     26      11.8963      0.00000
     27      11.8963      0.00000
     28      18.4721      0.00000
     29      20.8023      0.00000
     30      20.8079      0.00000
     31      20.8079      0.00000
     32      24.2044      0.00000
     33      24.5009      0.00000
     34      24.5009      0.00000
     35      24.7591      0.00000
     36      24.9907      0.00000
     37      25.8317      0.00000
     38      26.6890      0.00000
     39      26.7637      0.00000
     40      26.7638      0.00000
     41      30.3741      0.00000
     42      30.3806      0.00000
     43      30.5231      0.00000
     44      34.0566      0.00000
     45      34.4694      0.00000
     46      34.5023      0.00000

 k-point     4 :       0.0789    0.0000    0.0000
  band No.  band energies     occupation 
      1     -29.0548      2.00000
      2     -14.2939      2.00000
      3     -13.0962      2.00000
      4     -13.0772      2.00000
      5     -11.0873      2.00000
      6     -11.0873      2.00000
      7     -11.0432      2.00000
      8       0.0831      2.00000
      9       0.1719      2.00000
     10       0.1719      2.00000
     11       2.0456      2.00000
     12       2.0456      2.00000
     13       2.0942      2.00000
     14       2.7774      2.00000
     15       2.9369      2.00000
     16       2.9369      2.00000
     17       4.2980      1.95249
     18       4.4780      0.75016
     19       4.4780      0.75016
     20       6.4693     -0.00000
     21       6.6976     -0.00000
     22       8.9417     -0.00000
     23       8.9540     -0.00000
     24      10.0801      0.00000
     25      11.8501      0.00000
     26      11.9380      0.00000
     27      11.9380      0.00000
     28      18.4806      0.00000
     29      20.7854      0.00000
     30      20.8001      0.00000
     31      20.8002      0.00000
     32      23.9363      0.00000
     33      24.4380      0.00000
     34      24.4380      0.00000
     35      24.4804      0.00000
     36      24.9736      0.00000
     37      26.1658      0.00000
     38      26.6118      0.00000
     39      26.7747      0.00000
     40      26.7747      0.00000
     41      30.3015      0.00000
     42      30.3276      0.00000
     43      30.6027      0.00000
     44      33.8631      0.00000
     45      34.4408      0.00000
     46      34.5478      0.00000

 k-point     5 :       0.1053    0.0000    0.0000
  band No.  band energies     occupation 
      1     -29.0534      2.00000
      2     -14.2953      2.00000
      3     -13.1058      2.00000
      4     -13.0751      2.00000
      5     -11.0844      2.00000
      6     -11.0844      2.00000
      7     -11.0085      2.00000
      8       0.0136      2.00000
      9       0.1690      2.00000
     10       0.1690      2.00000
     11       1.9655      2.00000
     12       1.9655      2.00000
     13       2.0476      2.00000
     14       2.6246      2.00000
     15       2.8985      2.00000
     16       2.8985      2.00000
     17       4.3034      1.93569
     18       4.6019      0.03673
     19       4.6019      0.03673
     20       6.4704     -0.00000
     21       6.8524     -0.00000
     22       9.0257     -0.00000
     23       9.0453     -0.00000
     24      10.1968      0.00000
     25      11.8409      0.00000
     26      11.9949      0.00000
     27      11.9949      0.00000
     28      18.4891      0.00000
     29      20.7607      0.00000
     30      20.7895      0.00000
     31      20.7895      0.00000
     32      23.6671      0.00000
     33      24.1321      0.00000
     34      24.3532      0.00000
     35      24.3532      0.00000
     36      24.9471      0.00000
     37      26.5111      0.00000
     38      26.5257      0.00000
     39      26.7877      0.00000
     40      26.7877      0.00000
     41      30.2097      0.00000
     42      30.2467      0.00000
     43      30.6574      0.00000
     44      33.5702      0.00000
     45      34.5843      0.00000
     46      34.6343      0.00000

 k-point     6 :       0.1316    0.0000    0.0000
  band No.  band energies     occupation 
      1     -29.0517      2.00000
      2     -14.2983      2.00000
      3     -13.1150      2.00000
      4     -13.0724      2.00000
      5     -11.0809      2.00000
      6     -11.0809      2.00000
      7     -10.9669      2.00000
      8      -0.0723      2.00000
      9       0.1655      2.00000
     10       0.1655      2.00000
     11       1.8711      2.00000
     12       1.8711      2.00000
     13       1.9913      2.00000
     14       2.4515      2.00000
     15       2.8594      2.00000
     16       2.8594      2.00000
     17       4.3100      1.91291
     18       4.7422     -0.05787
     19       4.7422     -0.05787
     20       6.4717     -0.00000
     21       7.0283     -0.00000
     22       9.1316     -0.00000
     23       9.1580     -0.00000
     24      10.3434      0.00000
     25      11.8294      0.00000
     26      12.0655      0.00000
     27      12.0655      0.00000
     28      18.4940      0.00000
     29      20.7236      0.00000
     30      20.7765      0.00000
     31      20.7773      0.00000
     32      23.4071      0.00000
     33      23.7450      0.00000
     34      24.2495      0.00000
     35      24.2495      0.00000
     36      24.9085      0.00000
     37      26.3942      0.00000
     38      26.8011      0.00000
     39      26.8012      0.00000
     40      26.8995      0.00000
     41      30.1327      0.00000
     42      30.2455      0.00000
     43      30.7250      0.00000
     44      34.0274      0.00000
     45      34.5715      0.00000
     46      44.3404      0.00000

 k-point     7 :       0.1579    0.0000    0.0000
  band No.  band energies     occupation 
      1     -29.0497      2.00000
      2     -14.3036      2.00000
      3     -13.1219      2.00000
      4     -13.0693      2.00000
      5     -11.0768      2.00000
      6     -11.0768      2.00000
      7     -10.9200      2.00000
      8      -0.1720      2.00000
      9       0.1615      2.00000
     10       0.1615      2.00000
     11       1.7670      2.00000
     12       1.7670      2.00000
     13       1.9273      2.00000
     14       2.2676      2.00000
     15       2.8216      2.00000
     16       2.8216      2.00000
     17       4.3178      1.88352
     18       4.8926     -0.00730
     19       4.8926     -0.00730
     20       6.4730     -0.00000
     21       7.2160     -0.00000
     22       9.2578     -0.00000
     23       9.2889     -0.00000
     24      10.5179      0.00000
     25      11.8159      0.00000
     26      12.1481      0.00000
     27      12.1481      0.00000
     28      18.4910      0.00000
     29      20.6649      0.00000
     30      20.7618      0.00000
     31      20.7623      0.00000
     32      23.1604      0.00000
     33      23.3529      0.00000
     34      24.1301      0.00000
     35      24.1301      0.00000
     36      24.8536      0.00000
     37      26.2694      0.00000
     38      26.8129      0.00000
     39      26.8129      0.00000
     40      27.2804      0.00000
     41      30.0016      0.00000
     42      30.0743      0.00000
     43      30.6994      0.00000
     44      33.8519      0.00000
     45      39.2856      0.00000
     46      51.6248      0.00000

 k-point     8 :       0.1842    0.0000    0.0000
  band No.  band energies     occupation 
      1     -29.0475      2.00000
      2     -14.3117      2.00000
      3     -13.1252      2.00000
      4     -13.0659      2.00000
      5     -11.0722      2.00000
      6     -11.0722      2.00000
      7     -10.8698      2.00000
      8      -0.2833      2.00000
      9       0.1574      2.00000
     10       0.1574      2.00000
     11       1.6577      2.00000
     12       1.6577      2.00000
     13       1.8578      2.00000
     14       2.0806      2.00000
     15       2.7855      2.00000
     16       2.7855      2.00000
     17       4.3265      1.84705
     18       5.0478     -0.00019
     19       5.0478     -0.00019
     20       6.4744     -0.00000
     21       7.4080     -0.00000
     22       9.4022     -0.00000
     23       9.4343     -0.00000
     24      10.7179      0.00000
     25      11.8009      0.00000
     26      12.2406      0.00000
     27      12.2406      0.00000
     28      18.4751      0.00000
     29      20.5683      0.00000
     30      20.7459      0.00000
     31      20.7463      0.00000
     32      22.9293      0.00000
     33      22.9946      0.00000
     34      23.9983      0.00000
     35      23.9983      0.00000
     36      24.7791      0.00000
     37      26.1463      0.00000
     38      26.8214      0.00000
     39      26.8216      0.00000
     40      27.6639      0.00000
     41      29.9002      0.00000
     42      29.9302      0.00000
     43      30.5266      0.00000
     44      33.1276      0.00000
     45      34.6885      0.00000
     46      35.0957      0.00000

 k-point     9 :       0.2105    0.0000    0.0000
  band No.  band energies     occupation 
      1     -29.0451      2.00000
      2     -14.3228      2.00000
      3     -13.1237      2.00000
      4     -13.0622      2.00000
      5     -11.0672      2.00000
      6     -11.0672      2.00000
      7     -10.8178      2.00000
      8      -0.4026      2.00000
      9       0.1533      2.00000
     10       0.1533      2.00000
     11       1.5469      2.00000
     12       1.5469      2.00000
     13       1.7854      2.00000
     14       1.8964      2.00000
     15       2.7514      2.00000
     16       2.7514      2.00000
     17       4.3359      1.80336
     18       5.2039     -0.00000
     19       5.2039     -0.00000
     20       6.4758     -0.00000
     21       7.5983     -0.00000
     22       9.5622     -0.00000
     23       9.5906     -0.00000
     24      10.9412      0.00000
     25      11.7846      0.00000
     26      12.3407      0.00000
     27      12.3407      0.00000
     28      18.4405      0.00000
     29      20.4104      0.00000
     30      20.7295      0.00000
     31      20.7337      0.00000
     32      22.7135      0.00000
     33      22.7150      0.00000
     34      23.8574      0.00000
     35      23.8576      0.00000
     36      24.6815      0.00000
     37      26.0337      0.00000
     38      26.8248      0.00000
     39      26.8264      0.00000
     40      28.0506      0.00000
     41      29.8230      0.00000
     42      29.8697      0.00000
     43      30.3622      0.00000
     44      34.3891      0.00000
     45      44.2674      0.00000
     46      48.7610      0.00000

 k-point    10 :       0.2368    0.0000    0.0000
  band No.  band energies     occupation 
      1     -29.0426      2.00000
      2     -14.3368      2.00000
      3     -13.1172      2.00000
      4     -13.0584      2.00000
      5     -11.0620      2.00000
      6     -11.0620      2.00000
      7     -10.7657      2.00000
      8      -0.5271      2.00000
      9       0.1495      2.00000
     10       0.1495      2.00000
     11       1.4375      2.00000
     12       1.4375      2.00000
     13       1.7120      2.00000
     14       1.7196      2.00000
     15       2.7194      2.00000
     16       2.7194      2.00000
     17       4.3458      1.75279
     18       5.3573     -0.00000
     19       5.3573     -0.00000
     20       6.4771     -0.00000
     21       7.7826     -0.00000
     22       9.7346     -0.00000
     23       9.7536     -0.00000
     24      11.1855      0.00000
     25      11.7675      0.00000
     26      12.4457      0.00000
     27      12.4457      0.00000
     28      18.3803      0.00000
     29      20.1731      0.00000
     30      20.7133      0.00000
     31      20.7171      0.00000
     32      22.5184      0.00000
     33      22.5442      0.00000
     34      23.7106      0.00000
     35      23.7108      0.00000
     36      24.5602      0.00000
     37      25.9389      0.00000
     38      26.8225      0.00000
     39      26.8304      0.00000
     40      28.4233      0.00000
     41      29.7542      0.00000
     42      29.8952      0.00000
     43      30.4908      0.00000
     44      34.3215      0.00000
     45      38.3865      0.00000
     46      47.6482      0.00000

 k-point    11 :       0.2632    0.0000    0.0000
  band No.  band energies     occupation 
      1     -29.0401      2.00000
      2     -14.3535      2.00000
      3     -13.1058      2.00000
      4     -13.0545      2.00000
      5     -11.0567      2.00000
      6     -11.0567      2.00000
      7     -10.7148      2.00000
      8      -0.6531      2.00000
      9       0.1463      2.00000
     10       0.1463      2.00000
     11       1.3320      2.00000
     12       1.3320      2.00000
     13       1.5537      2.00000
     14       1.6399      2.00000
     15       2.6895      2.00000
     16       2.6895      2.00000
     17       4.3558      1.69630
     18       5.5053     -0.00000
     19       5.5053     -0.00000
     20       6.4784     -0.00000
     21       7.9573     -0.00000
     22       9.9154      0.00000
     23       9.9193      0.00000
     24      11.4491      0.00000
     25      11.7500      0.00000
     26      12.5530      0.00000
     27      12.5530      0.00000
     28      18.2852      0.00000
     29      19.8668      0.00000
     30      20.6982      0.00000
     31      20.7022      0.00000
     32      22.3397      0.00000
     33      22.4968      0.00000
     34      23.5614      0.00000
     35      23.5617      0.00000
     36      24.4182      0.00000
     37      25.8628      0.00000
     38      26.8134      0.00000
     39      26.8260      0.00000
     40      28.7824      0.00000
     41      29.6050      0.00000
     42      29.8016      0.00000
     43      30.0873      0.00000
     44      34.3276      0.00000
     45      37.2085      0.00000
     46      46.8176      0.00000

 k-point    12 :       0.2895    0.0000    0.0000
  band No.  band energies     occupation 
      1     -29.0375      2.00000
      2     -14.3719      2.00000
      3     -13.0902      2.00000
      4     -13.0506      2.00000
      5     -11.0515      2.00000
      6     -11.0515      2.00000
      7     -10.6665      2.00000
      8      -0.7771      2.00000
      9       0.1437      2.00000
     10       0.1437      2.00000
     11       1.2323      2.00000
     12       1.2323      2.00000
     13       1.4008      2.00000
     14       1.5706      2.00000
     15       2.6620      2.00000
     16       2.6620      2.00000
     17       4.3658      1.63552
     18       5.6451     -0.00000
     19       5.6451     -0.00000
     20       6.4795     -0.00000
     21       8.1196     -0.00000
     22      10.0833      0.00000
     23      10.1001      0.00000
     24      11.7305      0.00000
     25      11.7327      0.00000
     26      12.6596      0.00000
     27      12.6596      0.00000
     28      18.1408      0.00000
     29      19.5290      0.00000
[...]
     37      24.0144      0.00000
     38      27.2919      0.00000
     39      28.3111      0.00000
     40      28.3111      0.00000
     41      30.2727      0.00000
     42      30.2747      0.00000
     43      31.0800      0.00000
     44      34.0420      0.00000
     45      39.4829      0.00000
     46      55.8103      0.00000

 k-point    77 :       0.4211    0.4211    0.4211
  band No.  band energies     occupation 
      1     -28.9815      2.00000
      2     -13.1630      2.00000
      3     -12.9776      2.00000
      4     -12.9776      2.00000
      5     -11.3379      2.00000
      6     -11.3379      2.00000
      7     -11.1972      2.00000
      8      -1.6781      2.00000
      9      -1.0376      2.00000
     10      -1.0376      2.00000
     11      -0.6260      2.00000
     12      -0.4830      2.00000
     13      -0.4830      2.00000
     14       3.1871      2.00000
     15       3.1871      2.00000
     16       3.3006      2.00000
     17       6.6657     -0.00000
     18       6.6803     -0.00000
     19       6.6803     -0.00000
     20      10.3544      0.00000
     21      10.3544      0.00000
     22      10.8050      0.00000
     23      10.9171      0.00000
     24      10.9171      0.00000
     25      13.2430      0.00000
     26      13.2430      0.00000
     27      14.2496      0.00000
     28      17.8912      0.00000
     29      18.2711      0.00000
     30      18.2711      0.00000
     31      19.9068      0.00000
     32      20.8778      0.00000
     33      21.0489      0.00000
     34      21.0489      0.00000
     35      23.2102      0.00000
     36      23.2102      0.00000
     37      23.8535      0.00000
     38      27.0863      0.00000
     39      27.7699      0.00000
     40      27.7699      0.00000
     41      30.7320      0.00000
     42      30.7322      0.00000
     43      31.4771      0.00000
     44      39.0753      0.00000
     45      39.3836      0.00000
     46      55.8350      0.00000

 k-point    78 :       0.4474    0.4474    0.4474
  band No.  band energies     occupation 
      1     -28.9791      2.00000
      2     -13.0447      2.00000
      3     -12.9536      2.00000
      4     -12.9536      2.00000
      5     -11.3770      2.00000
      6     -11.3770      2.00000
      7     -11.3056      2.00000
      8      -1.7720      2.00000
      9      -1.0916      2.00000
     10      -1.0916      2.00000
     11      -0.5843      2.00000
     12      -0.5152      2.00000
     13      -0.5152      2.00000
     14       3.2918      2.00000
     15       3.2918      2.00000
     16       3.3461      2.00000
     17       6.7328     -0.00000
     18       6.7397     -0.00000
     19       6.7397     -0.00000
     20      10.4694      0.00000
     21      10.4694      0.00000
     22      10.6639      0.00000
     23      10.7708      0.00000
     24      10.7708      0.00000
     25      13.3470      0.00000
     26      13.3470      0.00000
     27      14.1097      0.00000
     28      18.0441      0.00000
     29      18.2052      0.00000
     30      18.2052      0.00000
     31      20.0982      0.00000
     32      20.9192      0.00000
     33      21.0031      0.00000
     34      21.0031      0.00000
     35      23.3940      0.00000
     36      23.3940      0.00000
     37      23.7343      0.00000
     38      26.8853      0.00000
     39      27.2273      0.00000
     40      27.2273      0.00000
     41      31.3110      0.00000
     42      31.3134      0.00000
     43      31.8171      0.00000
     44      39.1988      0.00000
     45      39.4412      0.00000
     46      55.8640      0.00000

 k-point    79 :       0.4737    0.4737    0.4737
  band No.  band energies     occupation 
      1     -28.9777      2.00000
      2     -12.9622      2.00000
      3     -12.9378      2.00000
      4     -12.9378      2.00000
      5     -11.4024      2.00000
      6     -11.4024      2.00000
      7     -11.3829      2.00000
      8      -1.8317      2.00000
      9      -1.1247      2.00000
     10      -1.1247      2.00000
     11      -0.5520      2.00000
     12      -0.5339      2.00000
     13      -0.5339      2.00000
     14       3.3598      2.00000
     15       3.3598      2.00000
     16       3.3740      2.00000
     17       6.7740     -0.00000
     18       6.7758     -0.00000
     19       6.7758     -0.00000
     20      10.5268      0.00000
     21      10.5268      0.00000
     22      10.5689      0.00000
     23      10.6873      0.00000
     24      10.6873      0.00000
     25      13.4117      0.00000
     26      13.4117      0.00000
     27      14.0243      0.00000
     28      18.1277      0.00000
     29      18.1665      0.00000
     30      18.1665      0.00000
     31      20.2525      0.00000
     32      20.9466      0.00000
     33      20.9685      0.00000
     34      20.9685      0.00000
     35      23.5642      0.00000
     36      23.5642      0.00000
     37      23.6610      0.00000
     38      26.7353      0.00000
     39      26.8288      0.00000
     40      26.8288      0.00000
     41      31.8664      0.00000
     42      31.9866      0.00000
     43      32.2974      0.00000
     44      39.0979      0.00000
     45      39.3522      0.00000
     46      55.8852      0.00000

 k-point    80 :       0.5000    0.5000    0.5000
  band No.  band energies     occupation 
      1     -28.9772      2.00000
      2     -12.9322      2.00000
      3     -12.9322      2.00000
      4     -12.9322      2.00000
      5     -11.4112      2.00000
      6     -11.4112      2.00000
      7     -11.4112      2.00000
      8      -1.8522      2.00000
      9      -1.1359      2.00000
     10      -1.1359      2.00000
     11      -0.5401      2.00000
     12      -0.5401      2.00000
     13      -0.5401      2.00000
     14       3.3834      2.00000
     15       3.3834      2.00000
     16       3.3834      2.00000
     17       6.7879     -0.00000
     18       6.7879     -0.00000
     19       6.7879     -0.00000
     20      10.5355      0.00000
     21      10.5355      0.00000
     22      10.5355      0.00000
     23      10.6686      0.00000
     24      10.6686      0.00000
     25      13.4335      0.00000
     26      13.4335      0.00000
     27      13.9956      0.00000
     28      18.1539      0.00000
     29      18.1539      0.00000
     30      18.1539      0.00000
     31      20.3120      0.00000
     32      20.9557      0.00000
     33      20.9557      0.00000
     34      20.9557      0.00000
     35      23.6362      0.00000
     36      23.6362      0.00000
     37      23.6362      0.00000
     38      26.6792      0.00000
     39      26.6792      0.00000
     40      26.6792      0.00000
     41      32.1590      0.00000
     42      32.1619      0.00000
     43      32.7794      0.00000
     44      39.1067      0.00000
     45      39.2505      0.00000
     46      55.8596      0.00000


--------------------------------------------------------------------------------------------------------


 soft charge-density along one line, spin component           1
         0         1         2         3         4         5         6         7         8         9
x     0.0000    0.0000    0.0000    0.0000    0.0000    0.0000    0.0000    0.0000    0.0000    0.0000
x     0.0000    0.0000    0.0000    0.0000    0.0000    0.0000    0.0000    0.0000    0.0000    0.0000
x     0.0000    0.0000    0.0000    0.0000    0.0000    0.0000
y     0.0000    0.0000    0.0000    0.0000    0.0000    0.0000    0.0000    0.0000    0.0000    0.0000
y     0.0000    0.0000    0.0000    0.0000    0.0000    0.0000    0.0000    0.0000    0.0000    0.0000
y     0.0000    0.0000    0.0000    0.0000    0.0000    0.0000
z     0.0000    0.0000    0.0000    0.0000    0.0000    0.0000    0.0000    0.0000    0.0000    0.0000
z     0.0000    0.0000    0.0000    0.0000    0.0000    0.0000    0.0000    0.0000    0.0000    0.0000
z     0.0000    0.0000    0.0000    0.0000    0.0000    0.0000
 total charge-density along one line
x    33.0000    0.0000   -1.6392    0.0000   11.4781    0.0000   -1.2336    0.0000    1.3085    0.0000
x    -0.1587    0.0000    0.0432    0.0000    0.0225    0.0000   -0.0330   -0.0000    0.0086   -0.0000
x    -0.0058   -0.0000   -0.0003   -0.0000    0.0016   -0.0000   -0.0002   -0.0000   -0.0005   -0.0000
x     0.0002   -0.0000    0.0000   -0.0000   -0.0001    0.0000    0.0001    0.0000    0.0000    0.0000
x    -0.0001    0.0000    0.0000    0.0000    0.0000    0.0000   -0.0000    0.0000   -0.0000    0.0000
y    33.0000    0.0000   -1.6392   -0.0000   11.4781    0.0000   -1.2336    0.0000    1.3085    0.0000
y    -0.1587    0.0000    0.0432   -0.0000    0.0225   -0.0000   -0.0330    0.0000    0.0086    0.0000
y    -0.0058    0.0000   -0.0003   -0.0000    0.0016   -0.0000   -0.0002   -0.0000   -0.0005    0.0000
y     0.0002    0.0000    0.0000    0.0000   -0.0001   -0.0000    0.0001   -0.0000    0.0000    0.0000
y    -0.0001    0.0000    0.0000    0.0000    0.0000   -0.0000   -0.0000   -0.0000   -0.0000    0.0000
z    33.0000    0.0000   -1.6392   -0.0000   11.4781   -0.0000   -1.2336   -0.0000    1.3085   -0.0000
z    -0.1587   -0.0000    0.0432   -0.0000    0.0225   -0.0000   -0.0330   -0.0000    0.0086   -0.0000
z    -0.0058    0.0000   -0.0003   -0.0000    0.0016   -0.0000   -0.0002   -0.0000   -0.0005   -0.0000
z     0.0002   -0.0000    0.0000   -0.0000   -0.0001   -0.0000    0.0001   -0.0000    0.0000   -0.0000
z    -0.0001   -0.0000    0.0000   -0.0000    0.0000   -0.0000   -0.0000   -0.0000   -0.0000    0.0000
 
 pseudopotential strength for first ion, spin component:           1
-11.984  -2.443   0.000   0.000  -0.000   0.000   0.000  -0.000
 -2.443  -2.272   0.000   0.000  -0.000   0.000   0.000  -0.000
  0.000   0.000 -14.457   0.000  -0.000 -14.189   0.000  -0.000
  0.000   0.000   0.000 -14.457  -0.000   0.000 -14.189  -0.000
 -0.000  -0.000  -0.000  -0.000 -14.457  -0.000  -0.000 -14.189
  0.000   0.000 -14.189   0.000  -0.000 -13.925   0.000  -0.000
  0.000   0.000   0.000 -14.189  -0.000   0.000 -13.925  -0.000
 -0.000  -0.000  -0.000  -0.000 -14.189  -0.000  -0.000 -13.925
 -0.000  -0.000  -0.000  -0.000   0.000  -0.000  -0.000   0.000
  0.000   0.000   0.000   0.000  -0.000   0.000   0.000  -0.000
  0.000   0.000  -0.000   0.000   0.000  -0.000   0.000   0.000
 -0.000  -0.000  -0.000  -0.000   0.000  -0.000  -0.000   0.000
 -0.000  -0.000  -0.000   0.000  -0.000  -0.000   0.000  -0.000
 -0.000  -0.000  -0.000  -0.000   0.000  -0.000  -0.000   0.000
  0.000   0.000   0.000   0.000  -0.000   0.000   0.000  -0.000
  0.000   0.000  -0.000   0.000   0.000  -0.000   0.000   0.000
 -0.000  -0.000  -0.000  -0.000   0.000  -0.000  -0.000   0.000
 -0.000  -0.000  -0.000   0.000  -0.000  -0.000   0.000  -0.000
 total augmentation occupancy for first ion, spin component:           1
  2.000   0.000   0.000   0.000   0.000   0.000   0.000   0.000   0.000   0.000   0.000   0.000   0.000   0.000   0.000   0.000
  0.000   1.999   0.000   0.000   0.000   0.000   0.000   0.000   0.000   0.000   0.000   0.000   0.000   0.000   0.000   0.000
  0.000   0.000   2.000   0.000   0.000   0.000   0.000   0.000   0.000   0.000   0.000   0.000   0.000   0.000   0.000   0.000
  0.000   0.000   0.000   2.000   0.000   0.000   0.000   0.000   0.000   0.000   0.000   0.000   0.000   0.000   0.000   0.000
  0.000   0.000   0.000   0.000   2.000   0.000   0.000   0.000   0.000   0.000   0.000   0.000   0.000   0.000   0.000   0.000
  0.000   0.000   0.000   0.000   0.000   0.000   0.000   0.000   0.000   0.000   0.000   0.000   0.000   0.000   0.000   0.000
  0.000   0.000   0.000   0.000   0.000   0.000   0.000   0.000   0.000   0.000   0.000   0.000   0.000   0.000   0.000   0.000
  0.000   0.000   0.000   0.000   0.000   0.000   0.000   0.000   0.000   0.000   0.000   0.000   0.000   0.000   0.000   0.000
  0.000   0.000   0.000   0.000   0.000   0.000   0.000   0.000   0.000   0.000   0.000   0.000   0.000   0.000   0.000   0.000
  0.000   0.000   0.000   0.000   0.000   0.000   0.000   0.000   0.000   0.000   0.000   0.000   0.000   0.000   0.000   0.000
  0.000   0.000   0.000   0.000   0.000   0.000   0.000   0.000   0.000   0.000   0.000   0.000   0.000   0.000   0.000   0.000
  0.000   0.000   0.000   0.000   0.000   0.000   0.000   0.000   0.000   0.000   0.000   0.000   0.000   0.000   0.000   0.000
  0.000   0.000   0.000   0.000   0.000   0.000   0.000   0.000   0.000   0.000   0.000   0.000   0.000   0.000   0.000   0.000
  0.000   0.000   0.000   0.000   0.000   0.000   0.000   0.000   0.000   0.000   0.000   0.000   0.000   0.000   0.000   0.000
  0.000   0.000   0.000   0.000   0.000   0.000   0.000   0.000   0.000   0.000   0.000   0.000   0.000   0.000   0.000   0.000
  0.000   0.000   0.000   0.000   0.000   0.000   0.000   0.000   0.000   0.000   0.000   0.000   0.000   0.000   0.000   0.000
  0.000   0.000   0.000   0.000   0.000   0.000   0.000   0.000   0.000   0.000   0.000   0.000   0.000   0.000   0.000   0.000
  0.000   0.000   0.000   0.000   0.000   0.000   0.000   0.000   0.000   0.000   0.000   0.000   0.000   0.000   0.000   0.000


------------------------ aborting loop because EDIFF is reached ----------------------------------------


 


 total charge     
 
# of ion       s       p       d       tot
------------------------------------------
    1        1.996   5.831   0.190   8.017
    2        0.472   1.283   3.200   4.955
    3        1.524   3.798   0.000   5.323
    4        1.546   3.559   0.000   5.105
    5        1.564   3.339   0.000   4.903
--------------------------------------------------
tot          7.103  17.810   3.390  28.303
 
    CHARGE:  cpu time    0.5412: real time    0.4241
    FORLOC:  cpu time    0.0048: real time    0.0050
    FORNL :  cpu time    2.2909: real time    2.3416
    STRESS:  cpu time    5.9708: real time    3.4543
    FORCOR:  cpu time    0.0399: real time    0.0404
    FORHAR:  cpu time    0.0113: real time    0.0113
    OFIELD:  cpu time    0.0001: real time    0.0001

  FORCE on cell =-STRESS in cart. coord.  units (eV):
  Direction    XX          YY          ZZ          XY          YZ          ZX
  --------------------------------------------------------------------------------------
  Alpha Z   180.95686   180.95686   180.95686
  Ewald    -682.63392  -682.63392  -682.63392    -0.00000    -0.00000    -0.00000
  Hartree   145.79272   145.79272   145.79272    -0.00000    -0.00000    -0.00000
  E(xc)    -149.40462  -149.40462  -149.40462     0.00000    -0.00000    -0.00000
  Local       6.44285     6.44285     6.44285     0.00000     0.00000     0.00000
  n-local  -111.91191  -110.07821  -107.26397    -0.34573    -0.16915    -0.16908
  augment    44.00909    44.00909    44.00909     0.00000     0.00000     0.00000
  Kinetic   558.67518   573.90538   577.57735    -1.55809    -0.83977    -0.83983
  Fock        0.00000     0.00000     0.00000     0.00000     0.00000     0.00000
  -------------------------------------------------------------------------------------
  Total       5.46426     5.46426     5.46426    -0.00000    -0.00000    -0.00000
  in kB     153.82882   153.82882   153.82882    -0.00000    -0.00000    -0.00000
  external pressure =      153.83 kB  Pullay stress =        0.00 kB


 VOLUME and BASIS-vectors are now :
 -----------------------------------------------------------------------------
  energy-cutoff  :      600.00
  volume of cell :       56.91
      direct lattice vectors                 reciprocal lattice vectors
     3.846520000  0.000000000  0.000000000     0.259975250  0.000000000  0.000000000
     0.000000000  3.846520000  0.000000000     0.000000000  0.259975250  0.000000000
     0.000000000  0.000000000  3.846520000     0.000000000  0.000000000  0.259975250

  length of vectors
     3.846520000  3.846520000  3.846520000     0.259975250  0.259975250  0.259975250


 FORCES acting on ions
    electron-ion (+dipol)            ewald-force                    non-local-force                 convergence-correction
 -----------------------------------------------------------------------------------------------
   -.293E-13 0.596E-15 0.905E-15   -.479E-14 -.313E-14 -.318E-14   0.000E+00 0.000E+00 0.000E+00   -.103E-12 0.275E-13 0.619E-14
   0.256E-13 0.356E-13 0.399E-13   -.289E-14 -.187E-14 0.208E-15   0.000E+00 0.000E+00 0.000E+00   0.520E-13 -.256E-13 -.183E-13
   0.120E-12 0.183E-12 -.766E-14   0.406E-14 -.102E-14 0.290E-15   0.000E+00 0.000E+00 0.000E+00   0.779E-13 -.668E-13 0.295E-13
   0.121E-12 -.992E-14 0.180E-12   0.190E-14 0.339E-14 0.147E-14   0.000E+00 0.000E+00 0.000E+00   0.112E-12 0.405E-13 -.260E-13
   -.587E-13 0.183E-12 0.182E-12   0.166E-14 0.231E-14 0.145E-14   0.000E+00 0.000E+00 0.000E+00   -.102E-12 0.485E-14 -.179E-13
 -----------------------------------------------------------------------------------------------
   0.179E-12 0.392E-12 0.395E-12   -.550E-16 -.318E-15 0.244E-15   0.000E+00 0.000E+00 0.000E+00   0.370E-13 -.196E-13 -.266E-13
 
 
 POSITION                                       TOTAL-FORCE (eV/Angst)
 -----------------------------------------------------------------------------------
      0.00000      0.00000      0.00000         0.000000      0.000000      0.000000
      1.92326      1.92326      1.92326         0.000000      0.000000      0.000000
      1.92326      1.92326      0.00000         0.000000      0.000000      0.000000
      1.92326      0.00000      1.92326         0.000000      0.000000      0.000000
      0.00000      1.92326      1.92326         0.000000      0.000000      0.000000
 -----------------------------------------------------------------------------------
    total drift:                                0.000000      0.000000      0.000000


--------------------------------------------------------------------------------------------------------



  FREE ENERGIE OF THE ION-ELECTRON SYSTEM (eV)
  ---------------------------------------------------
  free  energy   TOTEN  =       -37.76254297 eV

  energy  without entropy=      -37.75052280  energy(sigma->0) =      -37.75853625
 


--------------------------------------------------------------------------------------------------------


    POTLOK:  cpu time    0.0875: real time    0.0932


--------------------------------------------------------------------------------------------------------


 writing wavefunctions
     LOOP+:  cpu time  178.2060: real time   93.5507
    4ORBIT:  cpu time    0.0000: real time    0.0000
 


 total charge     
 
# of ion       s       p       d       tot
------------------------------------------
    1        1.996   5.831   0.190   8.017
    2        0.472   1.283   3.200   4.955
    3        1.524   3.798   0.000   5.323
    4        1.546   3.559   0.000   5.105
    5        1.564   3.339   0.000   4.903
--------------------------------------------------
tot          7.103  17.810   3.390  28.303
 

 total amount of memory used by VASP MPI-rank0   222431. kBytes
=======================================================================

   base      :      30000. kBytes
   nonl-proj :      67028. kBytes
   grid      :       7861. kBytes
   one-center:         77. kBytes
   wavefun   :     117465. kBytes
 
  
  
 General timing and accounting informations for this job:
 ========================================================
  
                  Total CPU time used (sec):      180.212
                            User time (sec):      178.221
                          System time (sec):        1.990
                         Elapsed time (sec):       95.366
  
                   Maximum memory used (kb):   262447104.
                   Average memory used (kb):           0.
  
                          Minor page faults:        72123
                          Major page faults:          772
                 Voluntary context switches:           92
