 vasp.5.4.4.18Apr17-6-g9f103f2a35 (build Sep 04 2018 22:01:38) complex          
  
 executed on             LinuxIFC date 2018.09.16  22:23:15
 serial version


--------------------------------------------------------------------------------------------------------


 INCAR:
 POTCAR:    PAW Sr_sv 10Feb1998                   
 POTCAR:    PAW V 07Aug2001                       
 POTCAR:    PAW O 22Mar2012                       
 POTCAR:    PAW Sr_sv 10Feb1998                   
   VRHFIN =Sr: 3s3p4s                                                           
   LEXCH  = CA                                                                  
   EATOM  =   845.5689 eV,   62.1476 Ry                                         
                                                                                
   TITEL  = PAW Sr_sv 10Feb1998                                                 
   LULTRA =        F    use ultrasoft PP ?                                      
   IUNSCR =        1    unscreen: 0-lin 1-nonlin 2-no                           
   RPACOR =    2.200    partial core radius                                     
   POMASS =   87.620; ZVAL   =   10.000    mass and valenz                      
   RCORE  =    2.500    outmost cutoff radius                                   
   RWIGS  =    4.040; RWIGS  =    2.138    wigner-seitz radius (au A)           
   ENMAX  =  226.327; ENMIN  =  169.745 eV                                      
   RCLOC  =    2.201    cutoff for local pot                                    
   LCOR   =        T    correct aug charges                                     
   LPAW   =        T    paw PP                                                  
   EAUG   =  366.804                                                            
   DEXC   =    0.000                                                            
   RMAX   =    2.547    core radius for proj-oper                               
   RAUG   =    1.300    factor for augmentation sphere                          
   RDEP   =    2.562    radius for radial grids                                 
   RDEPT  =    2.145    core radius for aug-charge                              
                                                                                
   Atomic configuration                                                         
   10 entries                                                                   
     n  l   j            E        occ.                                          
     1  0  0.50    -15851.8828   2.0000                                         
     2  0  0.50     -2148.9480   2.0000                                         
     2  1  1.50     -1912.9353   6.0000                                         
     3  0  0.50      -331.8462   2.0000                                         
     3  1  1.50      -255.3856   6.0000                                         
     3  2  2.50      -128.2784  10.0000                                         
     4  0  0.50       -40.8303   2.0000                                         
     5  0  0.50        -3.6422   1.9990                                         
     4  1  1.50       -22.8493   6.0000                                         
     4  2  1.50        -1.4198   0.0010                                         
   Description                                                                  
     l       E           TYP  RCUT    TYP  RCUT                                 
     0    -40.8303494     23  2.500                                             
     0     -3.6421860     23  2.500                                             
     1    -22.8492718     23  2.500                                             
     1    -24.2098544     23  2.500                                             
     2     -1.4197899     23  2.500                                             
     2      0.0045700     23  2.500                                             
  local pseudopotential read in
  partial core-charges read in
  partial kinetic energy density read in
  atomic valenz-charges read in
  non local Contribution for L=           0  read in
    real space projection operators read in
  non local Contribution for L=           0  read in
    real space projection operators read in
  non local Contribution for L=           1  read in
    real space projection operators read in
  non local Contribution for L=           1  read in
    real space projection operators read in
  non local Contribution for L=           2  read in
    real space projection operators read in
  non local Contribution for L=           2  read in
    real space projection operators read in
    PAW grid and wavefunctions read in
 
   number of l-projection  operators is LMAX  =           6
   number of lm-projection operators is LMMAX =          18
 
 POTCAR:    PAW V 07Aug2001                       
   VRHFIN =V: d4 s1                                                             
   LEXCH  = CA                                                                  
   EATOM  =   172.4520 eV,   12.6749 Ry                                         
                                                                                
   TITEL  = PAW V 07Aug2001                                                     
   LULTRA =        F    use ultrasoft PP ?                                      
   IUNSCR =        1    unscreen: 0-lin 1-nonlin 2-no                           
   RPACOR =    2.000    partial core radius                                     
   POMASS =   50.941; ZVAL   =    5.000    mass and valenz                      
   RCORE  =    2.700    outmost cutoff radius                                   
   RWIGS  =    2.500; RWIGS  =    1.323    wigner-seitz radius (au A)           
   ENMAX  =  192.706; ENMIN  =  144.529 eV                                      
   RCLOC  =    1.779    cutoff for local pot                                    
   LCOR   =        T    correct aug charges                                     
   LPAW   =        T    paw PP                                                  
   EAUG   =  358.662                                                            
   DEXC   =    0.000                                                            
   RMAX   =    2.768    core radius for proj-oper                               
   RAUG   =    1.300    factor for augmentation sphere                          
   RDEP   =    2.762    radius for radial grids                                 
   RDEPT  =    2.240    core radius for aug-charge                              
                                                                                
   Atomic configuration                                                         
    9 entries                                                                   
     n  l   j            E        occ.                                          
     1  0  0.50     -5334.6266   2.0000                                         
     2  0  0.50      -595.8619   2.0000                                         
     2  1  1.50      -498.2253   6.0000                                         
     3  0  0.50       -66.0397   2.0000                                         
     3  1  1.50       -40.3979   6.0000                                         
     3  2  2.50        -2.6339   4.0000                                         
     4  0  0.50        -4.0392   1.0000                                         
     4  1  0.50        -4.0817   0.0000                                         
     4  3  2.50        -1.3606   0.0000                                         
   Description                                                                  
     l       E           TYP  RCUT    TYP  RCUT                                 
     2     -2.6338511     23  2.700                                             
     2     -3.9944337     23  2.700                                             
     0     -4.0392463     23  2.700                                             
     0     27.2116520     23  2.700                                             
     1     -4.0817478     23  2.700                                             
     1     27.2116520     23  2.700                                             
  local pseudopotential read in
  partial core-charges read in
  partial kinetic energy density read in
  atomic valenz-charges read in
  non local Contribution for L=           2  read in
    real space projection operators read in
  non local Contribution for L=           2  read in
    real space projection operators read in
  non local Contribution for L=           0  read in
    real space projection operators read in
  non local Contribution for L=           0  read in
    real space projection operators read in
  non local Contribution for L=           1  read in
    real space projection operators read in
  non local Contribution for L=           1  read in
    real space projection operators read in
    PAW grid and wavefunctions read in
 
   number of l-projection  operators is LMAX  =           6
   number of lm-projection operators is LMMAX =          18
 
 POTCAR:    PAW O 22Mar2012                       
   VRHFIN =O: s2p4                                                              
   LEXCH  = CA                                                                  
   EATOM  =   431.4380 eV,   31.7098 Ry                                         
                                                                                
   TITEL  = PAW O 22Mar2012                                                     
   LULTRA =        F    use ultrasoft PP ?                                      
   IUNSCR =        1    unscreen: 0-lin 1-nonlin 2-no                           
   RPACOR =    1.200    partial core radius                                     
   POMASS =   16.000; ZVAL   =    6.000    mass and valenz                      
   RCORE  =    1.520    outmost cutoff radius                                   
   RWIGS  =    1.550; RWIGS  =    0.820    wigner-seitz radius (au A)           
   ENMAX  =  400.000; ENMIN  =  300.000 eV                                      
   ICORE  =        2    local potential                                         
   LCOR   =        T    correct aug charges                                     
   LPAW   =        T    paw PP                                                  
   EAUG   =  605.392                                                            
   DEXC   =    0.000                                                            
   RMAX   =    1.553    core radius for proj-oper                               
   RAUG   =    1.300    factor for augmentation sphere                          
   RDEP   =    1.550    radius for radial grids                                 
   RDEPT  =    1.329    core radius for aug-charge                              
                                                                                
   Atomic configuration                                                         
    4 entries                                                                   
     n  l   j            E        occ.                                          
     1  0  0.50      -510.4605   2.0000                                         
     2  0  0.50       -23.7367   2.0000                                         
     2  1  0.50        -9.1995   4.0000                                         
     3  2  1.50        -9.5241   0.0000                                         
   Description                                                                  
     l       E           TYP  RCUT    TYP  RCUT                                 
     0    -23.7366993     23  1.200                                             
     0     -9.5240782     23  1.200                                             
     1     -9.1994509     23  1.520                                             
     1      8.1634956     23  1.520                                             
     2     -9.5240782      7  1.500                                             
  local pseudopotential read in
  partial core-charges read in
  partial kinetic energy density read in
  kinetic energy density of atom read in
  atomic valenz-charges read in
  non local Contribution for L=           0  read in
    real space projection operators read in
  non local Contribution for L=           0  read in
    real space projection operators read in
  non local Contribution for L=           1  read in
    real space projection operators read in
  non local Contribution for L=           1  read in
    real space projection operators read in
    PAW grid and wavefunctions read in
 
   number of l-projection  operators is LMAX  =           4
   number of lm-projection operators is LMMAX =           8
 

 ----------------------------------------------------------------------------- 
|                                                                             |
|  ADVICE TO THIS USER RUNNING 'VASP/VAMP'   (HEAR YOUR MASTER'S VOICE ...):  |
|                                                                             |
|      You enforced a specific xc-type in the INCAR file,                     |
|      a different type was found on the POTCAR file                          |
|          I HOPE YOU KNOW, WHAT YOU ARE  DOING                               |
|                                                                             |
 ----------------------------------------------------------------------------- 

  PAW Sr_sv 10Feb1998                   :
 energy of atom  1       EATOM= -845.5689
 kinetic energy error for atom=    0.0006 (will be added to EATOM!!)
  PAW V 07Aug2001                       :
 energy of atom  2       EATOM= -172.4520
 kinetic energy error for atom=    0.0002 (will be added to EATOM!!)
  PAW O 22Mar2012                       :
 energy of atom  3       EATOM= -431.4380
 kinetic energy error for atom=    0.0165 (will be added to EATOM!!)
 
 
 POSCAR: Sr V O                                  
  positions in direct lattice
  No initial velocities read in
 exchange correlation table for  LEXCH =       14
   RHO(1)=    0.500       N(1)  =     2000
   RHO(2)=  100.500       N(2)  =     4000
 


--------------------------------------------------------------------------------------------------------


 ion  position               nearest neighbor table
   1  0.000  0.000  0.000-   3 2.72   4 2.72   5 2.72   4 2.72   5 2.72   3 2.72   5 2.72   5 2.72
                             3 2.72   4 2.72   4 2.72   3 2.72   2 3.33   2 3.33   2 3.33   2 3.33
   2  0.500  0.500  0.500-   3 1.92   4 1.92   5 1.92   3 1.92   4 1.92   5 1.92   1 3.33   1 3.33
                             1 3.33   1 3.33   1 3.33   1 3.33   1 3.33   1 3.33
   3  0.500  0.500  0.000-   2 1.92   2 1.92   1 2.72   1 2.72   1 2.72   1 2.72
   4  0.500  0.000  0.500-   2 1.92   2 1.92   1 2.72   1 2.72   1 2.72   1 2.72
   5  0.000  0.500  0.500-   2 1.92   2 1.92   1 2.72   1 2.72   1 2.72   1 2.72
 
  LATTYP: Found a simple cubic cell.
 ALAT       =     3.8465200000
  
  Lattice vectors:
  
 A1 = (   3.8465200000,   0.0000000000,   0.0000000000)
 A2 = (   0.0000000000,   3.8465200000,   0.0000000000)
 A3 = (   0.0000000000,   0.0000000000,   3.8465200000)


Analysis of symmetry for initial positions (statically):
=====================================================================
 Subroutine PRICEL returns:
 Original cell was already a primitive cell.
 

 Routine SETGRP: Setting up the symmetry group for a 
 simple cubic supercell.


 Subroutine GETGRP returns: Found 48 space group operations
 (whereof 48 operations were pure point group operations)
 out of a pool of 48 trial point group operations.


The static configuration has the point symmetry O_h .


Analysis of symmetry for dynamics (positions and initial velocities):
=====================================================================
 Subroutine PRICEL returns:
 Original cell was already a primitive cell.
 

 Routine SETGRP: Setting up the symmetry group for a 
 simple cubic supercell.


 Subroutine GETGRP returns: Found 48 space group operations
 (whereof 48 operations were pure point group operations)
 out of a pool of 48 trial point group operations.


The dynamic configuration has the point symmetry O_h .


 Subroutine INISYM returns: Found 48 space group operations
 (whereof 48 operations are pure point group operations),
 and found     1 'primitive' translations

 
 
 KPOINTS: KPOINTS generated by PyProcar           
  interpolating k-points between supplied coordinates
  k-points in reciprocal lattice
Space group operators:
 irot       det(A)        alpha          n_x          n_y          n_z        tau_x        tau_y        tau_z
    1     1.000000     0.000000     1.000000     0.000000     0.000000     0.000000     0.000000     0.000000
    2    -1.000000     0.000000     1.000000     0.000000     0.000000     0.000000     0.000000     0.000000
    3     1.000000   120.000000    -0.577350    -0.577350    -0.577350     0.000000     0.000000     0.000000
    4    -1.000000   120.000000    -0.577350    -0.577350    -0.577350     0.000000     0.000000     0.000000
    5     1.000000   120.000000     0.577350     0.577350     0.577350     0.000000     0.000000     0.000000
    6    -1.000000   120.000000     0.577350     0.577350     0.577350     0.000000     0.000000     0.000000
    7     1.000000    90.000000     0.000000     0.000000    -1.000000     0.000000     0.000000     0.000000
    8    -1.000000    90.000000     0.000000     0.000000    -1.000000     0.000000     0.000000     0.000000
    9     1.000000   180.000000     0.000000     0.707107     0.707107     0.000000     0.000000     0.000000
   10    -1.000000   180.000000     0.000000     0.707107     0.707107     0.000000     0.000000     0.000000
   11     1.000000    90.000000     0.000000     1.000000     0.000000     0.000000     0.000000     0.000000
   12    -1.000000    90.000000     0.000000     1.000000     0.000000     0.000000     0.000000     0.000000
   13     1.000000   180.000000     0.000000     0.000000     1.000000     0.000000     0.000000     0.000000
   14    -1.000000   180.000000     0.000000     0.000000     1.000000     0.000000     0.000000     0.000000
   15     1.000000   120.000000    -0.577350     0.577350     0.577350     0.000000     0.000000     0.000000
   16    -1.000000   120.000000    -0.577350     0.577350     0.577350     0.000000     0.000000     0.000000
   17     1.000000   120.000000    -0.577350     0.577350    -0.577350     0.000000     0.000000     0.000000
   18    -1.000000   120.000000    -0.577350     0.577350    -0.577350     0.000000     0.000000     0.000000
   19     1.000000    90.000000     0.000000     0.000000     1.000000     0.000000     0.000000     0.000000
   20    -1.000000    90.000000     0.000000     0.000000     1.000000     0.000000     0.000000     0.000000
   21     1.000000    90.000000    -1.000000     0.000000     0.000000     0.000000     0.000000     0.000000
   22    -1.000000    90.000000    -1.000000     0.000000     0.000000     0.000000     0.000000     0.000000
   23     1.000000   180.000000     0.707107     0.000000     0.707107     0.000000     0.000000     0.000000
   24    -1.000000   180.000000     0.707107     0.000000     0.707107     0.000000     0.000000     0.000000
   25     1.000000   120.000000     0.577350    -0.577350     0.577350     0.000000     0.000000     0.000000
   26    -1.000000   120.000000     0.577350    -0.577350     0.577350     0.000000     0.000000     0.000000
   27     1.000000   120.000000    -0.577350    -0.577350     0.577350     0.000000     0.000000     0.000000
   28    -1.000000   120.000000    -0.577350    -0.577350     0.577350     0.000000     0.000000     0.000000
   29     1.000000   180.000000     1.000000     0.000000     0.000000     0.000000     0.000000     0.000000
   30    -1.000000   180.000000     1.000000     0.000000     0.000000     0.000000     0.000000     0.000000
   31     1.000000    90.000000     0.000000    -1.000000     0.000000     0.000000     0.000000     0.000000
   32    -1.000000    90.000000     0.000000    -1.000000     0.000000     0.000000     0.000000     0.000000
   33     1.000000   180.000000     0.707107     0.707107     0.000000     0.000000     0.000000     0.000000
   34    -1.000000   180.000000     0.707107     0.707107     0.000000     0.000000     0.000000     0.000000
   35     1.000000    90.000000     1.000000     0.000000     0.000000     0.000000     0.000000     0.000000
   36    -1.000000    90.000000     1.000000     0.000000     0.000000     0.000000     0.000000     0.000000
   37     1.000000   120.000000     0.577350    -0.577350    -0.577350     0.000000     0.000000     0.000000
   38    -1.000000   120.000000     0.577350    -0.577350    -0.577350     0.000000     0.000000     0.000000
   39     1.000000   180.000000     0.000000     1.000000     0.000000     0.000000     0.000000     0.000000
   40    -1.000000   180.000000     0.000000     1.000000     0.000000     0.000000     0.000000     0.000000
   41     1.000000   120.000000     0.577350     0.577350    -0.577350     0.000000     0.000000     0.000000
   42    -1.000000   120.000000     0.577350     0.577350    -0.577350     0.000000     0.000000     0.000000
   43     1.000000   180.000000     0.000000    -0.707107     0.707107     0.000000     0.000000     0.000000
   44    -1.000000   180.000000     0.000000    -0.707107     0.707107     0.000000     0.000000     0.000000
   45     1.000000   180.000000     0.707107    -0.707107     0.000000     0.000000     0.000000     0.000000
   46    -1.000000   180.000000     0.707107    -0.707107     0.000000     0.000000     0.000000     0.000000
   47     1.000000   180.000000     0.707107     0.000000    -0.707107     0.000000     0.000000     0.000000
   48    -1.000000   180.000000     0.707107     0.000000    -0.707107     0.000000     0.000000     0.000000


--------------------------------------------------------------------------------------------------------




 Dimension of arrays:
   k-points           NKPTS =    160   k-points in BZ     NKDIM =    160   number of bands    NBANDS=     46
   number of dos      NEDOS =    301   number of ions     NIONS =      5
   non local maximal  LDIM  =      6   non local SUM 2l+1 LMDIM =     18
   total plane-waves  NPLWV =  13824
   max r-space proj   IRMAX =      1   max aug-charges    IRDMAX= 118030
   dimension x,y,z NGX =    24 NGY =   24 NGZ =   24
   dimension x,y,z NGXF=    48 NGYF=   48 NGZF=   48
   support grid    NGXF=    96 NGYF=   96 NGZF=   96
   ions per type =               1   1   3
   NGX,Y,Z   is equivalent  to a cutoff of  10.37, 10.37, 10.37 a.u.
   NGXF,Y,Z  is equivalent  to a cutoff of  20.75, 20.75, 20.75 a.u.

 SYSTEM =  SrVO3 	                                 
 POSCAR =  Sr V O                                  

 Startparameter for this run:
   NWRITE =      2    write-flag & timer
   PREC   = normal    normal or accurate (medium, high low for compatibility)
   ISTART =      0    job   : 0-new  1-cont  2-samecut
   ICHARG =      2    charge: 1-file 2-atom 10-const
   ISPIN  =      1    spin polarized calculation?
   LNONCOLLINEAR =      F non collinear calculations
   LSORBIT =      F    spin-orbit coupling
   INIWAV =      1    electr: 0-lowe 1-rand  2-diag
   LASPH  =      F    aspherical Exc in radial PAW
   METAGGA=      F    non-selfconsistent MetaGGA calc.

 Electronic Relaxation 1
   ENCUT  =  600.0 eV  44.10 Ry    6.64 a.u.   7.68  7.68  7.68*2*pi/ulx,y,z
   ENINI  =  600.0     initial cutoff
   ENAUG  =  605.4 eV  augmentation charge cutoff
   NELM   =     60;   NELMIN=  2; NELMDL=-12     # of ELM steps 
   EDIFF  = 0.1E-03   stopping-criterion for ELM
   LREAL  =      F    real-space projection
   NLSPLINE    = F    spline interpolate recip. space projectors
   LCOMPAT=      F    compatible to vasp.4.4
   GGA_COMPAT  = T    GGA compatible to vasp.4.4-vasp.4.6
   LMAXPAW     = -100 max onsite density
   LMAXMIX     =    4 max onsite mixed and CHGCAR
   VOSKOWN=      0    Vosko Wilk Nusair interpolation
   ROPT   =    0.00000   0.00000   0.00000
 Ionic relaxation
   EDIFFG = 0.1E-02   stopping-criterion for IOM
   NSW    =      0    number of steps for IOM
   NBLOCK =      1;   KBLOCK =      1    inner block; outer block 
   IBRION =     -1    ionic relax: 0-MD 1-quasi-New 2-CG
   NFREE  =      0    steps in history (QN), initial steepest desc. (CG)
   ISIF   =      2    stress and relaxation
   IWAVPR =      0    prediction:  0-non 1-charg 2-wave 3-comb
   ISYM   =      2    0-nonsym 1-usesym 2-fastsym
   LCORR  =      T    Harris-Foulkes like correction to forces

   POTIM  = 0.5000    time-step for ionic-motion
   TEIN   =    0.0    initial temperature
   TEBEG  =    0.0;   TEEND  =   0.0 temperature during run
   SMASS  =  -3.00    Nose mass-parameter (am)
   estimated Nose-frequenzy (Omega)   =  0.10E-29 period in steps =****** mass=  -0.338E-27a.u.
   SCALEE = 1.0000    scale energy and forces
   NPACO  =    256;   APACO  = 16.0  distance and # of slots for P.C.
   PSTRESS=    0.0 pullay stress

  Mass of Ions in am
   POMASS =  87.62 50.94 16.00
  Ionic Valenz
   ZVAL   =  10.00  5.00  6.00
  Atomic Wigner-Seitz radii
   RWIGS  =  -1.00 -1.00 -1.00
  virtual crystal weights 
   VCA    =   1.00  1.00  1.00
   NELECT =      33.0000    total number of electrons
   NUPDOWN=      -1.0000    fix difference up-down

 DOS related values:
   EMIN   =  10.00;   EMAX   =-10.00  energy-range for DOS
   EFERMI =   0.00
   ISMEAR =     1;   SIGMA  =   0.20  broadening in eV -4-tet -1-fermi 0-gaus

 Electronic relaxation 2 (details)
   IALGO  =     48    algorithm
   LDIAG  =      T    sub-space diagonalisation (order eigenvalues)
   LSUBROT=      F    optimize rotation matrix (better conditioning)
   TURBO    =      0    0=normal 1=particle mesh
   IRESTART =      0    0=no restart 2=restart with 2 vectors
   NREBOOT  =      0    no. of reboots
   NMIN     =      0    reboot dimension
   EREF     =   0.00    reference energy to select bands
   IMIX   =      4    mixing-type and parameters
     AMIX     =   0.40;   BMIX     =  1.00
     AMIX_MAG =   1.60;   BMIX_MAG =  1.00
     AMIN     =   0.10
     WC   =   100.;   INIMIX=   1;  MIXPRE=   1;  MAXMIX= -45

 Intra band minimization:
   WEIMIN = 0.0000     energy-eigenvalue tresh-hold
   EBREAK =  0.54E-06  absolut break condition
   DEPER  =   0.30     relativ break condition  

   TIME   =   0.40     timestep for ELM

  volume/ion in A,a.u.               =      11.38        76.81
  Fermi-wavevector in a.u.,A,eV,Ry     =   1.365143  2.579746 25.356027  1.863615
  Thomas-Fermi vector in A             =   2.491397
 
 Write flags
   LWAVE        =      T    write WAVECAR
   LDOWNSAMPLE  =      F    k-point downsampling of WAVECAR
   LCHARG       =      T    write CHGCAR
   LVTOT        =      F    write LOCPOT, total local potential
   LVHAR        =      F    write LOCPOT, Hartree potential only
   LELF         =      F    write electronic localiz. function (ELF)
   LORBIT       =     11    0 simple, 1 ext, 2 COOP (PROOUT), +10 PAW based schemes


 Dipole corrections
   LMONO  =      F    monopole corrections only (constant potential shift)
   LDIPOL =      F    correct potential (dipole corrections)
   IDIPOL =      0    1-x, 2-y, 3-z, 4-all directions 
   EPSILON=  1.0000000 bulk dielectric constant

 Exchange correlation treatment:
   GGA     =    PS    GGA type
   LEXCH   =    14    internal setting for exchange type
   VOSKOWN=      0    Vosko Wilk Nusair interpolation
   LHFCALC =     F    Hartree Fock is set to
   LHFONE  =     F    Hartree Fock one center treatment
   AEXX    =    0.0000 exact exchange contribution

 Linear response parameters
   LEPSILON=     F    determine dielectric tensor
   LRPA    =     F    only Hartree local field effects (RPA)
   LNABLA  =     F    use nabla operator in PAW spheres
   LVEL    =     F    velocity operator in full k-point grid
   LINTERFAST=   F  fast interpolation
   KINTER  =     0    interpolate to denser k-point grid
   CSHIFT  =0.1000    complex shift for real part using Kramers Kronig
   OMEGAMAX=  -1.0    maximum frequency
   DEG_THRESHOLD= 0.2000000E-02 threshold for treating states as degnerate
   RTIME   =   -0.100 relaxation time in fs
  (WPLASMAI=    0.000 imaginary part of plasma frequency in eV, 0.658/RTIME)
   DFIELD  = 0.0000000 0.0000000 0.0000000 field for delta impulse in time
 
 Orbital magnetization related:
   ORBITALMAG=     F  switch on orbital magnetization
   LCHIMAG   =     F  perturbation theory with respect to B field
   DQ        =  0.001000  dq finite difference perturbation B field
   LLRAUG    =     F  two centre corrections for induced B field



--------------------------------------------------------------------------------------------------------


 Static calculation
 charge density and potential will be updated during run
 non-spin polarized calculation
 RMM-DIIS sequential band-by-band
 perform sub-space diagonalisation
    before iterative eigenvector-optimisation
 modified Broyden-mixing scheme, WC =      100.0
 initial mixing is a Kerker type mixing with AMIX =  0.4000 and BMIX =      1.0000
 Hartree-type preconditioning will be used
 using additional bands           29
 reciprocal scheme for non local part
 use partial core corrections
 calculate Harris-corrections to forces 
   (improved forces if not selfconsistent)
 use gradient corrections 
 use of overlap-Matrix (Vanderbilt PP)
 Methfessel and Paxton  Order N= 1 SIGMA  =   0.20


--------------------------------------------------------------------------------------------------------


  energy-cutoff  :      600.00
  volume of cell :       56.91
      direct lattice vectors                 reciprocal lattice vectors
     3.846520000  0.000000000  0.000000000     0.259975250  0.000000000  0.000000000
     0.000000000  3.846520000  0.000000000     0.000000000  0.259975250  0.000000000
     0.000000000  0.000000000  3.846520000     0.000000000  0.000000000  0.259975250

  length of vectors
     3.846520000  3.846520000  3.846520000     0.259975250  0.259975250  0.259975250


 
 k-points in units of 2pi/SCALE and weight: KPOINTS generated by PyProcar           
   0.00000000  0.00000000  0.00000000       0.006
   0.01282051  0.00000000  0.00000000       0.006
   0.02564103  0.00000000  0.00000000       0.006
   0.03846154  0.00000000  0.00000000       0.006
   0.05128205  0.00000000  0.00000000       0.006
   0.06410256  0.00000000  0.00000000       0.006
   0.07692308  0.00000000  0.00000000       0.006
   0.08974359  0.00000000  0.00000000       0.006
   0.10256410  0.00000000  0.00000000       0.006
   0.11538462  0.00000000  0.00000000       0.006
   0.12820513  0.00000000  0.00000000       0.006
   0.14102564  0.00000000  0.00000000       0.006
   0.15384615  0.00000000  0.00000000       0.006
   0.16666667  0.00000000  0.00000000       0.006
   0.17948718  0.00000000  0.00000000       0.006
   0.19230769  0.00000000  0.00000000       0.006
   0.20512821  0.00000000  0.00000000       0.006
   0.21794872  0.00000000  0.00000000       0.006
   0.23076923  0.00000000  0.00000000       0.006
   0.24358974  0.00000000  0.00000000       0.006
   0.25641026  0.00000000  0.00000000       0.006
   0.26923077  0.00000000  0.00000000       0.006
   0.28205128  0.00000000  0.00000000       0.006
   0.29487179  0.00000000  0.00000000       0.006
   0.30769231  0.00000000  0.00000000       0.006
   0.32051282  0.00000000  0.00000000       0.006
   0.33333333  0.00000000  0.00000000       0.006
   0.34615385  0.00000000  0.00000000       0.006
   0.35897436  0.00000000  0.00000000       0.006
   0.37179487  0.00000000  0.00000000       0.006
   0.38461538  0.00000000  0.00000000       0.006
   0.39743590  0.00000000  0.00000000       0.006
   0.41025641  0.00000000  0.00000000       0.006
   0.42307692  0.00000000  0.00000000       0.006
   0.43589744  0.00000000  0.00000000       0.006
   0.44871795  0.00000000  0.00000000       0.006
   0.46153846  0.00000000  0.00000000       0.006
   0.47435897  0.00000000  0.00000000       0.006
   0.48717949  0.00000000  0.00000000       0.006
   0.50000000  0.00000000  0.00000000       0.006
   0.50000000  0.00000000  0.00000000       0.006
   0.50000000  0.01282051  0.00000000       0.006
   0.50000000  0.02564103  0.00000000       0.006
   0.50000000  0.03846154  0.00000000       0.006
   0.50000000  0.05128205  0.00000000       0.006
   0.50000000  0.06410256  0.00000000       0.006
   0.50000000  0.07692308  0.00000000       0.006
   0.50000000  0.08974359  0.00000000       0.006
   0.50000000  0.10256410  0.00000000       0.006
   0.50000000  0.11538462  0.00000000       0.006
   0.50000000  0.12820513  0.00000000       0.006
   0.50000000  0.14102564  0.00000000       0.006
   0.50000000  0.15384615  0.00000000       0.006
   0.50000000  0.16666667  0.00000000       0.006
   0.50000000  0.17948718  0.00000000       0.006
   0.50000000  0.19230769  0.00000000       0.006
   0.50000000  0.20512821  0.00000000       0.006
   0.50000000  0.21794872  0.00000000       0.006
   0.50000000  0.23076923  0.00000000       0.006
   0.50000000  0.24358974  0.00000000       0.006
   0.50000000  0.25641026  0.00000000       0.006
   0.50000000  0.26923077  0.00000000       0.006
   0.50000000  0.28205128  0.00000000       0.006
   0.50000000  0.29487179  0.00000000       0.006
   0.50000000  0.30769231  0.00000000       0.006
   0.50000000  0.32051282  0.00000000       0.006
   0.50000000  0.33333333  0.00000000       0.006
   0.50000000  0.34615385  0.00000000       0.006
   0.50000000  0.35897436  0.00000000       0.006
   0.50000000  0.37179487  0.00000000       0.006
   0.50000000  0.38461538  0.00000000       0.006
   0.50000000  0.39743590  0.00000000       0.006
   0.50000000  0.41025641  0.00000000       0.006
   0.50000000  0.42307692  0.00000000       0.006
   0.50000000  0.43589744  0.00000000       0.006
   0.50000000  0.44871795  0.00000000       0.006
   0.50000000  0.46153846  0.00000000       0.006
   0.50000000  0.47435897  0.00000000       0.006
   0.50000000  0.48717949  0.00000000       0.006
   0.50000000  0.50000000  0.00000000       0.006
   0.50000000  0.50000000  0.00000000       0.006
   0.48717949  0.48717949  0.00000000       0.006
   0.47435897  0.47435897  0.00000000       0.006
   0.46153846  0.46153846  0.00000000       0.006
   0.44871795  0.44871795  0.00000000       0.006
   0.43589744  0.43589744  0.00000000       0.006
   0.42307692  0.42307692  0.00000000       0.006
   0.41025641  0.41025641  0.00000000       0.006
   0.39743590  0.39743590  0.00000000       0.006
   0.38461538  0.38461538  0.00000000       0.006
   0.37179487  0.37179487  0.00000000       0.006
   0.35897436  0.35897436  0.00000000       0.006
   0.34615385  0.34615385  0.00000000       0.006
   0.33333333  0.33333333  0.00000000       0.006
   0.32051282  0.32051282  0.00000000       0.006
   0.30769231  0.30769231  0.00000000       0.006
   0.29487179  0.29487179  0.00000000       0.006
   0.28205128  0.28205128  0.00000000       0.006
   0.26923077  0.26923077  0.00000000       0.006
   0.25641026  0.25641026  0.00000000       0.006
   0.24358974  0.24358974  0.00000000       0.006
   0.23076923  0.23076923  0.00000000       0.006
   0.21794872  0.21794872  0.00000000       0.006
   0.20512821  0.20512821  0.00000000       0.006
   0.19230769  0.19230769  0.00000000       0.006
   0.17948718  0.17948718  0.00000000       0.006
   0.16666667  0.16666667  0.00000000       0.006
   0.15384615  0.15384615  0.00000000       0.006
   0.14102564  0.14102564  0.00000000       0.006
   0.12820513  0.12820513  0.00000000       0.006
   0.11538462  0.11538462  0.00000000       0.006
   0.10256410  0.10256410  0.00000000       0.006
   0.08974359  0.08974359  0.00000000       0.006
   0.07692308  0.07692308  0.00000000       0.006
   0.06410256  0.06410256  0.00000000       0.006
   0.05128205  0.05128205  0.00000000       0.006
   0.03846154  0.03846154  0.00000000       0.006
   0.02564103  0.02564103  0.00000000       0.006
   0.01282051  0.01282051  0.00000000       0.006
   0.00000000  0.00000000  0.00000000       0.006
   0.00000000  0.00000000  0.00000000       0.006
   0.01282051  0.01282051  0.01282051       0.006
   0.02564103  0.02564103  0.02564103       0.006
   0.03846154  0.03846154  0.03846154       0.006
   0.05128205  0.05128205  0.05128205       0.006
   0.06410256  0.06410256  0.06410256       0.006
   0.07692308  0.07692308  0.07692308       0.006
   0.08974359  0.08974359  0.08974359       0.006
   0.10256410  0.10256410  0.10256410       0.006
   0.11538462  0.11538462  0.11538462       0.006
   0.12820513  0.12820513  0.12820513       0.006
   0.14102564  0.14102564  0.14102564       0.006
   0.15384615  0.15384615  0.15384615       0.006
   0.16666667  0.16666667  0.16666667       0.006
   0.17948718  0.17948718  0.17948718       0.006
   0.19230769  0.19230769  0.19230769       0.006
   0.20512821  0.20512821  0.20512821       0.006
   0.21794872  0.21794872  0.21794872       0.006
   0.23076923  0.23076923  0.23076923       0.006
   0.24358974  0.24358974  0.24358974       0.006
   0.25641026  0.25641026  0.25641026       0.006
   0.26923077  0.26923077  0.26923077       0.006
   0.28205128  0.28205128  0.28205128       0.006
   0.29487179  0.29487179  0.29487179       0.006
   0.30769231  0.30769231  0.30769231       0.006
   0.32051282  0.32051282  0.32051282       0.006
   0.33333333  0.33333333  0.33333333       0.006
   0.34615385  0.34615385  0.34615385       0.006
   0.35897436  0.35897436  0.35897436       0.006
   0.37179487  0.37179487  0.37179487       0.006
   0.38461538  0.38461538  0.38461538       0.006
   0.39743590  0.39743590  0.39743590       0.006
   0.41025641  0.41025641  0.41025641       0.006
   0.42307692  0.42307692  0.42307692       0.006
   0.43589744  0.43589744  0.43589744       0.006
   0.44871795  0.44871795  0.44871795       0.006
   0.46153846  0.46153846  0.46153846       0.006
   0.47435897  0.47435897  0.47435897       0.006
   0.48717949  0.48717949  0.48717949       0.006
   0.50000000  0.50000000  0.50000000       0.006
 
 k-points in reciprocal lattice and weights: KPOINTS generated by PyProcar           
   0.00000000  0.00000000  0.00000000       0.006
   0.01282051  0.00000000  0.00000000       0.006
   0.02564103  0.00000000  0.00000000       0.006
   0.03846154  0.00000000  0.00000000       0.006
   0.05128205  0.00000000  0.00000000       0.006
   0.06410256  0.00000000  0.00000000       0.006
   0.07692308  0.00000000  0.00000000       0.006
   0.08974359  0.00000000  0.00000000       0.006
   0.10256410  0.00000000  0.00000000       0.006
   0.11538462  0.00000000  0.00000000       0.006
   0.12820513  0.00000000  0.00000000       0.006
   0.14102564  0.00000000  0.00000000       0.006
   0.15384615  0.00000000  0.00000000       0.006
   0.16666667  0.00000000  0.00000000       0.006
   0.17948718  0.00000000  0.00000000       0.006
   0.19230769  0.00000000  0.00000000       0.006
   0.20512821  0.00000000  0.00000000       0.006
   0.21794872  0.00000000  0.00000000       0.006
   0.23076923  0.00000000  0.00000000       0.006
   0.24358974  0.00000000  0.00000000       0.006
   0.25641026  0.00000000  0.00000000       0.006
   0.26923077  0.00000000  0.00000000       0.006
   0.28205128  0.00000000  0.00000000       0.006
   0.29487179  0.00000000  0.00000000       0.006
   0.30769231  0.00000000  0.00000000       0.006
   0.32051282  0.00000000  0.00000000       0.006
   0.33333333  0.00000000  0.00000000       0.006
   0.34615385  0.00000000  0.00000000       0.006
   0.35897436  0.00000000  0.00000000       0.006
   0.37179487  0.00000000  0.00000000       0.006
   0.38461538  0.00000000  0.00000000       0.006
   0.39743590  0.00000000  0.00000000       0.006
   0.41025641  0.00000000  0.00000000       0.006
   0.42307692  0.00000000  0.00000000       0.006
   0.43589744  0.00000000  0.00000000       0.006
   0.44871795  0.00000000  0.00000000       0.006
   0.46153846  0.00000000  0.00000000       0.006
   0.47435897  0.00000000  0.00000000       0.006
   0.48717949  0.00000000  0.00000000       0.006
   0.50000000  0.00000000  0.00000000       0.006
   0.50000000  0.00000000  0.00000000       0.006
   0.50000000  0.01282051  0.00000000       0.006
   0.50000000  0.02564103  0.00000000       0.006
   0.50000000  0.03846154  0.00000000       0.006
   0.50000000  0.05128205  0.00000000       0.006
   0.50000000  0.06410256  0.00000000       0.006
   0.50000000  0.07692308  0.00000000       0.006
   0.50000000  0.08974359  0.00000000       0.006
   0.50000000  0.10256410  0.00000000       0.006
   0.50000000  0.11538462  0.00000000       0.006
   0.50000000  0.12820513  0.00000000       0.006
   0.50000000  0.14102564  0.00000000       0.006
   0.50000000  0.15384615  0.00000000       0.006
   0.50000000  0.16666667  0.00000000       0.006
   0.50000000  0.17948718  0.00000000       0.006
   0.50000000  0.19230769  0.00000000       0.006
   0.50000000  0.20512821  0.00000000       0.006
   0.50000000  0.21794872  0.00000000       0.006
   0.50000000  0.23076923  0.00000000       0.006
   0.50000000  0.24358974  0.00000000       0.006
   0.50000000  0.25641026  0.00000000       0.006
   0.50000000  0.26923077  0.00000000       0.006
   0.50000000  0.28205128  0.00000000       0.006
   0.50000000  0.29487179  0.00000000       0.006
   0.50000000  0.30769231  0.00000000       0.006
   0.50000000  0.32051282  0.00000000       0.006
   0.50000000  0.33333333  0.00000000       0.006
   0.50000000  0.34615385  0.00000000       0.006
   0.50000000  0.35897436  0.00000000       0.006
   0.50000000  0.37179487  0.00000000       0.006
   0.50000000  0.38461538  0.00000000       0.006
   0.50000000  0.39743590  0.00000000       0.006
   0.50000000  0.41025641  0.00000000       0.006
   0.50000000  0.42307692  0.00000000       0.006
   0.50000000  0.43589744  0.00000000       0.006
   0.50000000  0.44871795  0.00000000       0.006
   0.50000000  0.46153846  0.00000000       0.006
   0.50000000  0.47435897  0.00000000       0.006
   0.50000000  0.48717949  0.00000000       0.006
   0.50000000  0.50000000  0.00000000       0.006
   0.50000000  0.50000000  0.00000000       0.006
   0.48717949  0.48717949  0.00000000       0.006
   0.47435897  0.47435897  0.00000000       0.006
   0.46153846  0.46153846  0.00000000       0.006
   0.44871795  0.44871795  0.00000000       0.006
   0.43589744  0.43589744  0.00000000       0.006
   0.42307692  0.42307692  0.00000000       0.006
   0.41025641  0.41025641  0.00000000       0.006
   0.39743590  0.39743590  0.00000000       0.006
   0.38461538  0.38461538  0.00000000       0.006
   0.37179487  0.37179487  0.00000000       0.006
   0.35897436  0.35897436  0.00000000       0.006
   0.34615385  0.34615385  0.00000000       0.006
   0.33333333  0.33333333  0.00000000       0.006
   0.32051282  0.32051282  0.00000000       0.006
   0.30769231  0.30769231  0.00000000       0.006
   0.29487179  0.29487179  0.00000000       0.006
   0.28205128  0.28205128  0.00000000       0.006
   0.26923077  0.26923077  0.00000000       0.006
   0.25641026  0.25641026  0.00000000       0.006
   0.24358974  0.24358974  0.00000000       0.006
   0.23076923  0.23076923  0.00000000       0.006
   0.21794872  0.21794872  0.00000000       0.006
   0.20512821  0.20512821  0.00000000       0.006
   0.19230769  0.19230769  0.00000000       0.006
   0.17948718  0.17948718  0.00000000       0.006
   0.16666667  0.16666667  0.00000000       0.006
   0.15384615  0.15384615  0.00000000       0.006
   0.14102564  0.14102564  0.00000000       0.006
   0.12820513  0.12820513  0.00000000       0.006
   0.11538462  0.11538462  0.00000000       0.006
   0.10256410  0.10256410  0.00000000       0.006
   0.08974359  0.08974359  0.00000000       0.006
   0.07692308  0.07692308  0.00000000       0.006
   0.06410256  0.06410256  0.00000000       0.006
   0.05128205  0.05128205  0.00000000       0.006
   0.03846154  0.03846154  0.00000000       0.006
   0.02564103  0.02564103  0.00000000       0.006
   0.01282051  0.01282051  0.00000000       0.006
   0.00000000  0.00000000  0.00000000       0.006
   0.00000000  0.00000000  0.00000000       0.006
   0.01282051  0.01282051  0.01282051       0.006
   0.02564103  0.02564103  0.02564103       0.006
   0.03846154  0.03846154  0.03846154       0.006
   0.05128205  0.05128205  0.05128205       0.006
   0.06410256  0.06410256  0.06410256       0.006
   0.07692308  0.07692308  0.07692308       0.006
   0.08974359  0.08974359  0.08974359       0.006
   0.10256410  0.10256410  0.10256410       0.006
   0.11538462  0.11538462  0.11538462       0.006
   0.12820513  0.12820513  0.12820513       0.006
   0.14102564  0.14102564  0.14102564       0.006
   0.15384615  0.15384615  0.15384615       0.006
   0.16666667  0.16666667  0.16666667       0.006
   0.17948718  0.17948718  0.17948718       0.006
   0.19230769  0.19230769  0.19230769       0.006
   0.20512821  0.20512821  0.20512821       0.006
   0.21794872  0.21794872  0.21794872       0.006
   0.23076923  0.23076923  0.23076923       0.006
   0.24358974  0.24358974  0.24358974       0.006
   0.25641026  0.25641026  0.25641026       0.006
   0.26923077  0.26923077  0.26923077       0.006
   0.28205128  0.28205128  0.28205128       0.006
   0.29487179  0.29487179  0.29487179       0.006
   0.30769231  0.30769231  0.30769231       0.006
   0.32051282  0.32051282  0.32051282       0.006
   0.33333333  0.33333333  0.33333333       0.006
   0.34615385  0.34615385  0.34615385       0.006
   0.35897436  0.35897436  0.35897436       0.006
   0.37179487  0.37179487  0.37179487       0.006
   0.38461538  0.38461538  0.38461538       0.006
   0.39743590  0.39743590  0.39743590       0.006
   0.41025641  0.41025641  0.41025641       0.006
   0.42307692  0.42307692  0.42307692       0.006
   0.43589744  0.43589744  0.43589744       0.006
   0.44871795  0.44871795  0.44871795       0.006
   0.46153846  0.46153846  0.46153846       0.006
   0.47435897  0.47435897  0.47435897       0.006
   0.48717949  0.48717949  0.48717949       0.006
   0.50000000  0.50000000  0.50000000       0.006
 
 position of ions in fractional coordinates (direct lattice) 
   0.00000000  0.00000000  0.00000000
   0.50000000  0.50000000  0.50000000
   0.50000000  0.50000000  0.00000000
   0.50000000  0.00000000  0.50000000
   0.00000000  0.50000000  0.50000000
 
 position of ions in cartesian coordinates  (Angst):
   0.00000000  0.00000000  0.00000000
   1.92326000  1.92326000  1.92326000
   1.92326000  1.92326000  0.00000000
   1.92326000  0.00000000  1.92326000
   0.00000000  1.92326000  1.92326000
 


--------------------------------------------------------------------------------------------------------


 k-point  1 :   0.0000 0.0000 0.0000  plane waves:    1935
 k-point  2 :   0.0128 0.0000 0.0000  plane waves:    1899
 k-point  3 :   0.0256 0.0000 0.0000  plane waves:    1899
 k-point  4 :   0.0385 0.0000 0.0000  plane waves:    1899
 k-point  5 :   0.0513 0.0000 0.0000  plane waves:    1899
 k-point  6 :   0.0641 0.0000 0.0000  plane waves:    1899
 k-point  7 :   0.0769 0.0000 0.0000  plane waves:    1895
 k-point  8 :   0.0897 0.0000 0.0000  plane waves:    1895
 k-point  9 :   0.1026 0.0000 0.0000  plane waves:    1895
 k-point 10 :   0.1154 0.0000 0.0000  plane waves:    1895
 k-point 11 :   0.1282 0.0000 0.0000  plane waves:    1895
 k-point 12 :   0.1410 0.0000 0.0000  plane waves:    1895
 k-point 13 :   0.1538 0.0000 0.0000  plane waves:    1891
 k-point 14 :   0.1667 0.0000 0.0000  plane waves:    1887
 k-point 15 :   0.1795 0.0000 0.0000  plane waves:    1899
 k-point 16 :   0.1923 0.0000 0.0000  plane waves:    1899
 k-point 17 :   0.2051 0.0000 0.0000  plane waves:    1899
 k-point 18 :   0.2179 0.0000 0.0000  plane waves:    1907
 k-point 19 :   0.2308 0.0000 0.0000  plane waves:    1907
 k-point 20 :   0.2436 0.0000 0.0000  plane waves:    1907
 k-point 21 :   0.2564 0.0000 0.0000  plane waves:    1907
 k-point 22 :   0.2692 0.0000 0.0000  plane waves:    1907
 k-point 23 :   0.2821 0.0000 0.0000  plane waves:    1907
 k-point 24 :   0.2949 0.0000 0.0000  plane waves:    1907
 k-point 25 :   0.3077 0.0000 0.0000  plane waves:    1915
 k-point 26 :   0.3205 0.0000 0.0000  plane waves:    1916
 k-point 27 :   0.3333 0.0000 0.0000  plane waves:    1916
 k-point 28 :   0.3462 0.0000 0.0000  plane waves:    1916
 k-point 29 :   0.3590 0.0000 0.0000  plane waves:    1916
 k-point 30 :   0.3718 0.0000 0.0000  plane waves:    1908
 k-point 31 :   0.3846 0.0000 0.0000  plane waves:    1912
 k-point 32 :   0.3974 0.0000 0.0000  plane waves:    1912
 k-point 33 :   0.4103 0.0000 0.0000  plane waves:    1908
 k-point 34 :   0.4231 0.0000 0.0000  plane waves:    1904
 k-point 35 :   0.4359 0.0000 0.0000  plane waves:    1904
 k-point 36 :   0.4487 0.0000 0.0000  plane waves:    1908
 k-point 37 :   0.4615 0.0000 0.0000  plane waves:    1904
 k-point 38 :   0.4744 0.0000 0.0000  plane waves:    1904
 k-point 39 :   0.4872 0.0000 0.0000  plane waves:    1888
 k-point 40 :   0.5000 0.0000 0.0000  plane waves:    1888
 k-point 41 :   0.5000 0.0000 0.0000  plane waves:    1888
 k-point 42 :   0.5000 0.0128 0.0000  plane waves:    1888
 k-point 43 :   0.5000 0.0256 0.0000  plane waves:    1896
 k-point 44 :   0.5000 0.0385 0.0000  plane waves:    1900
 k-point 45 :   0.5000 0.0513 0.0000  plane waves:    1900
 k-point 46 :   0.5000 0.0641 0.0000  plane waves:    1900
 k-point 47 :   0.5000 0.0769 0.0000  plane waves:    1900
 k-point 48 :   0.5000 0.0897 0.0000  plane waves:    1904
 k-point 49 :   0.5000 0.1026 0.0000  plane waves:    1898
 k-point 50 :   0.5000 0.1154 0.0000  plane waves:    1902
 k-point 51 :   0.5000 0.1282 0.0000  plane waves:    1902
 k-point 52 :   0.5000 0.1410 0.0000  plane waves:    1902
 k-point 53 :   0.5000 0.1538 0.0000  plane waves:    1894
 k-point 54 :   0.5000 0.1667 0.0000  plane waves:    1896
 k-point 55 :   0.5000 0.1795 0.0000  plane waves:    1896
 k-point 56 :   0.5000 0.1923 0.0000  plane waves:    1900
 k-point 57 :   0.5000 0.2051 0.0000  plane waves:    1896
 k-point 58 :   0.5000 0.2179 0.0000  plane waves:    1904
 k-point 59 :   0.5000 0.2308 0.0000  plane waves:    1910
 k-point 60 :   0.5000 0.2436 0.0000  plane waves:    1914
 k-point 61 :   0.5000 0.2564 0.0000  plane waves:    1914
 k-point 62 :   0.5000 0.2692 0.0000  plane waves:    1908
 k-point 63 :   0.5000 0.2821 0.0000  plane waves:    1896
 k-point 64 :   0.5000 0.2949 0.0000  plane waves:    1900
 k-point 65 :   0.5000 0.3077 0.0000  plane waves:    1900
 k-point 66 :   0.5000 0.3205 0.0000  plane waves:    1900
 k-point 67 :   0.5000 0.3333 0.0000  plane waves:    1896
 k-point 68 :   0.5000 0.3462 0.0000  plane waves:    1908
 k-point 69 :   0.5000 0.3590 0.0000  plane waves:    1908
 k-point 70 :   0.5000 0.3718 0.0000  plane waves:    1910
 k-point 71 :   0.5000 0.3846 0.0000  plane waves:    1914
 k-point 72 :   0.5000 0.3974 0.0000  plane waves:    1910
 k-point 73 :   0.5000 0.4103 0.0000  plane waves:    1910
 k-point 74 :   0.5000 0.4231 0.0000  plane waves:    1910
 k-point 75 :   0.5000 0.4359 0.0000  plane waves:    1918
 k-point 76 :   0.5000 0.4487 0.0000  plane waves:    1918
 k-point 77 :   0.5000 0.4615 0.0000  plane waves:    1926
 k-point 78 :   0.5000 0.4744 0.0000  plane waves:    1924
 k-point 79 :   0.5000 0.4872 0.0000  plane waves:    1924
 k-point 80 :   0.5000 0.5000 0.0000  plane waves:    1924
 k-point 81 :   0.5000 0.5000 0.0000  plane waves:    1924
 k-point 82 :   0.4872 0.4872 0.0000  plane waves:    1924
 k-point 83 :   0.4744 0.4744 0.0000  plane waves:    1928
 k-point 84 :   0.4615 0.4615 0.0000  plane waves:    1918
 k-point 85 :   0.4487 0.4487 0.0000  plane waves:    1912
 k-point 86 :   0.4359 0.4359 0.0000  plane waves:    1912
 k-point 87 :   0.4231 0.4231 0.0000  plane waves:    1913
 k-point 88 :   0.4103 0.4103 0.0000  plane waves:    1901
 k-point 89 :   0.3974 0.3974 0.0000  plane waves:    1901
 k-point 90 :   0.3846 0.3846 0.0000  plane waves:    1901
 k-point 91 :   0.3718 0.3718 0.0000  plane waves:    1897
 k-point 92 :   0.3590 0.3590 0.0000  plane waves:    1895
 k-point 93 :   0.3462 0.3462 0.0000  plane waves:    1899
 k-point 94 :   0.3333 0.3333 0.0000  plane waves:    1903
 k-point 95 :   0.3205 0.3205 0.0000  plane waves:    1899
 k-point 96 :   0.3077 0.3077 0.0000  plane waves:    1887
 k-point 97 :   0.2949 0.2949 0.0000  plane waves:    1891
 k-point 98 :   0.2821 0.2821 0.0000  plane waves:    1895
 k-point 99 :   0.2692 0.2692 0.0000  plane waves:    1897
 k-point ** :   0.2564 0.2564 0.0000  plane waves:    1893
 k-point ** :   0.2436 0.2436 0.0000  plane waves:    1895
 k-point ** :   0.2308 0.2308 0.0000  plane waves:    1901
 k-point ** :   0.2179 0.2179 0.0000  plane waves:    1897
 k-point ** :   0.2051 0.2051 0.0000  plane waves:    1893
 k-point ** :   0.1923 0.1923 0.0000  plane waves:    1897
 k-point ** :   0.1795 0.1795 0.0000  plane waves:    1901
 k-point ** :   0.1667 0.1667 0.0000  plane waves:    1893
 k-point ** :   0.1538 0.1538 0.0000  plane waves:    1897
 k-point ** :   0.1410 0.1410 0.0000  plane waves:    1893
 k-point ** :   0.1282 0.1282 0.0000  plane waves:    1889
 k-point ** :   0.1154 0.1154 0.0000  plane waves:    1893
 k-point ** :   0.1026 0.1026 0.0000  plane waves:    1897
 k-point ** :   0.0897 0.0897 0.0000  plane waves:    1895
 k-point ** :   0.0769 0.0769 0.0000  plane waves:    1895
 k-point ** :   0.0641 0.0641 0.0000  plane waves:    1899
 k-point ** :   0.0513 0.0513 0.0000  plane waves:    1899
 k-point ** :   0.0385 0.0385 0.0000  plane waves:    1901
 k-point ** :   0.0256 0.0256 0.0000  plane waves:    1901
 k-point ** :   0.0128 0.0128 0.0000  plane waves:    1901
 k-point ** :   0.0000 0.0000 0.0000  plane waves:    1935
 k-point ** :   0.0000 0.0000 0.0000  plane waves:    1935
 k-point ** :   0.0128 0.0128 0.0128  plane waves:    1899
 k-point ** :   0.0256 0.0256 0.0256  plane waves:    1899
 k-point ** :   0.0385 0.0385 0.0385  plane waves:    1899
 k-point ** :   0.0513 0.0513 0.0513  plane waves:    1893
 k-point ** :   0.0641 0.0641 0.0641  plane waves:    1893
 k-point ** :   0.0769 0.0769 0.0769  plane waves:    1899
 k-point ** :   0.0897 0.0897 0.0897  plane waves:    1896
 k-point ** :   0.1026 0.1026 0.1026  plane waves:    1899
 k-point ** :   0.1154 0.1154 0.1154  plane waves:    1899
 k-point ** :   0.1282 0.1282 0.1282  plane waves:    1899
 k-point ** :   0.1410 0.1410 0.1410  plane waves:    1893
 k-point ** :   0.1538 0.1538 0.1538  plane waves:    1905
 k-point ** :   0.1667 0.1667 0.1667  plane waves:    1905
 k-point ** :   0.1795 0.1795 0.1795  plane waves:    1905
 k-point ** :   0.1923 0.1923 0.1923  plane waves:    1893
 k-point ** :   0.2051 0.2051 0.2051  plane waves:    1893
 k-point ** :   0.2179 0.2179 0.2179  plane waves:    1899
 k-point ** :   0.2308 0.2308 0.2308  plane waves:    1899
 k-point ** :   0.2436 0.2436 0.2436  plane waves:    1899
 k-point ** :   0.2564 0.2564 0.2564  plane waves:    1902
 k-point ** :   0.2692 0.2692 0.2692  plane waves:    1902
 k-point ** :   0.2821 0.2821 0.2821  plane waves:    1902
 k-point ** :   0.2949 0.2949 0.2949  plane waves:    1902
 k-point ** :   0.3077 0.3077 0.3077  plane waves:    1899
 k-point ** :   0.3205 0.3205 0.3205  plane waves:    1890
 k-point ** :   0.3333 0.3333 0.3333  plane waves:    1896
 k-point ** :   0.3462 0.3462 0.3462  plane waves:    1884
 k-point ** :   0.3590 0.3590 0.3590  plane waves:    1893
 k-point ** :   0.3718 0.3718 0.3718  plane waves:    1896
 k-point ** :   0.3846 0.3846 0.3846  plane waves:    1884
 k-point ** :   0.3974 0.3974 0.3974  plane waves:    1884
 k-point ** :   0.4103 0.4103 0.4103  plane waves:    1896
 k-point ** :   0.4231 0.4231 0.4231  plane waves:    1890
 k-point ** :   0.4359 0.4359 0.4359  plane waves:    1880
 k-point ** :   0.4487 0.4487 0.4487  plane waves:    1880
 k-point ** :   0.4615 0.4615 0.4615  plane waves:    1880
 k-point ** :   0.4744 0.4744 0.4744  plane waves:    1880
 k-point ** :   0.4872 0.4872 0.4872  plane waves:    1904
 k-point ** :   0.5000 0.5000 0.5000  plane waves:    1904

 maximum number of plane-waves:      1935
 maximum index in each direction: 
   IXMAX=    7   IYMAX=    7   IZMAX=    7
   IXMIN=   -8   IYMIN=   -8   IZMIN=   -8


 total amount of memory used by VASP MPI-rank0   406771. kBytes
=======================================================================

   base      :      30000. kBytes
   nonl-proj :     133902. kBytes
   grid      :       7861. kBytes
   one-center:         77. kBytes
   wavefun   :     234931. kBytes
 
     INWAV:  cpu time    0.0000: real time    0.0000
 Broyden mixing: mesh for mixing (old mesh)
   NGX = 15   NGY = 15   NGZ = 15
  (NGX  = 48   NGY  = 48   NGZ  = 48)
  gives a total of   3375 points

 initial charge density was supplied:
 charge density of overlapping atoms calculated
 number of electron      33.0000000 magnetization 
 keeping initial charge density in first step


--------------------------------------------------------------------------------------------------------


 Maximum index for augmentation-charges       114425 (set IRDMAX)


--------------------------------------------------------------------------------------------------------


 First call to EWALD:  gamma=   0.461
 Maximum number of real-space cells 3x 3x 3
 Maximum number of reciprocal cells 3x 3x 3

    FEWALD:  cpu time    0.0021: real time    0.0011


--------------------------------------- Iteration      1(   1)  ---------------------------------------


    POTLOK:  cpu time    0.0750: real time    0.0393
    SETDIJ:  cpu time    0.1061: real time    0.0553
    EDDIAG:  cpu time    5.6114: real time    2.9014
  RMM-DIIS:  cpu time   12.0904: real time    6.4080
    ORTHCH:  cpu time    0.2316: real time    0.1178
       DOS:  cpu time    0.0294: real time    0.0147
    --------------------------------------------
      LOOP:  cpu time   18.1439: real time    9.5367

 eigenvalue-minimisations  :  7360
 total energy-change (2. order) : 0.3569565E+03  (-0.7913162E+03)
 number of electron      33.0000000 magnetization 
 augmentation part       33.0000000 magnetization 

 Free energy of the ion-electron system (eV)
  ---------------------------------------------------
  alpha Z        PSCENC =       180.95685896
  Ewald energy   TEWEN  =     -2047.90029510
  -Hartree energ DENC   =      -397.98094314
  -exchange      EXHF   =         0.00000000
  -V(xc)+E(xc)   XCENC  =        74.80502972
  PAW double counting   =      1874.62222984    -1816.10279664
  entropy T*S    EENTRO =        -0.00231717
  eigenvalues    EBANDS =       181.90606890
  atomic energy  EATOM  =      2306.65267270
  Solvation  Ediel_sol  =         0.00000000
  ---------------------------------------------------
  free energy    TOTEN  =       356.95650806 eV

  energy without entropy =      356.95882523  energy(sigma->0) =      356.95728045


--------------------------------------------------------------------------------------------------------




--------------------------------------- Iteration      1(   2)  ---------------------------------------


    EDDIAG:  cpu time    5.9466: real time    3.1006
  RMM-DIIS:  cpu time   12.3351: real time    6.4003
    ORTHCH:  cpu time    0.3221: real time    0.1679
       DOS:  cpu time    0.0305: real time    0.0155
    --------------------------------------------
      LOOP:  cpu time   18.6342: real time    9.6843

 eigenvalue-minimisations  :  7360
 total energy-change (2. order) :-0.3315642E+03  (-0.2212523E+03)
 number of electron      33.0000000 magnetization 
 augmentation part       33.0000000 magnetization 

 Free energy of the ion-electron system (eV)
  ---------------------------------------------------
  alpha Z        PSCENC =       180.95685896
  Ewald energy   TEWEN  =     -2047.90029510
  -Hartree energ DENC   =      -397.98094314
  -exchange      EXHF   =         0.00000000
  -V(xc)+E(xc)   XCENC  =        74.80502972
  PAW double counting   =      1874.62222984    -1816.10279664
  entropy T*S    EENTRO =        -0.00130715
  eigenvalues    EBANDS =      -149.65911894
  atomic energy  EATOM  =      2306.65267270
  Solvation  Ediel_sol  =         0.00000000
  ---------------------------------------------------
  free energy    TOTEN  =        25.39233024 eV

  energy without entropy =       25.39363739  energy(sigma->0) =       25.39276596


--------------------------------------------------------------------------------------------------------




--------------------------------------- Iteration      1(   3)  ---------------------------------------


    EDDIAG:  cpu time    6.5378: real time    3.4424
  RMM-DIIS:  cpu time   12.0811: real time    6.2344
    ORTHCH:  cpu time    0.2275: real time    0.1159
       DOS:  cpu time    0.0291: real time    0.0142
    --------------------------------------------
      LOOP:  cpu time   18.8754: real time    9.8069

 eigenvalue-minimisations  :  7360
 total energy-change (2. order) :-0.5517632E+02  (-0.2635089E+02)
 number of electron      33.0000000 magnetization 
 augmentation part       33.0000000 magnetization 

 Free energy of the ion-electron system (eV)
  ---------------------------------------------------
  alpha Z        PSCENC =       180.95685896
  Ewald energy   TEWEN  =     -2047.90029510
  -Hartree energ DENC   =      -397.98094314
  -exchange      EXHF   =         0.00000000
  -V(xc)+E(xc)   XCENC  =        74.80502972
  PAW double counting   =      1874.62222984    -1816.10279664
  entropy T*S    EENTRO =         0.00241842
  eigenvalues    EBANDS =      -204.83916289
  atomic energy  EATOM  =      2306.65267270
  Solvation  Ediel_sol  =         0.00000000
  ---------------------------------------------------
  free energy    TOTEN  =       -29.78398813 eV

  energy without entropy =      -29.78640655  energy(sigma->0) =      -29.78479427


--------------------------------------------------------------------------------------------------------




--------------------------------------- Iteration      1(   4)  ---------------------------------------


    EDDIAG:  cpu time    5.6091: real time    2.8758
  RMM-DIIS:  cpu time   11.9248: real time    6.1780
    ORTHCH:  cpu time    0.2164: real time    0.1098
       DOS:  cpu time    0.0295: real time    0.0147
    --------------------------------------------
      LOOP:  cpu time   17.7797: real time    9.1783

 eigenvalue-minimisations  :  7360
 total energy-change (2. order) :-0.1408004E+02  (-0.4136622E+01)
 number of electron      33.0000000 magnetization 
 augmentation part       33.0000000 magnetization 

 Free energy of the ion-electron system (eV)
  ---------------------------------------------------
  alpha Z        PSCENC =       180.95685896
  Ewald energy   TEWEN  =     -2047.90029510
  -Hartree energ DENC   =      -397.98094314
  -exchange      EXHF   =         0.00000000
  -V(xc)+E(xc)   XCENC  =        74.80502972
  PAW double counting   =      1874.62222984    -1816.10279664
  entropy T*S    EENTRO =        -0.00062691
  eigenvalues    EBANDS =      -218.91616097
  atomic energy  EATOM  =      2306.65267270
  Solvation  Ediel_sol  =         0.00000000
  ---------------------------------------------------
  free energy    TOTEN  =       -43.86403155 eV

  energy without entropy =      -43.86340464  energy(sigma->0) =      -43.86382258


--------------------------------------------------------------------------------------------------------




--------------------------------------- Iteration      1(   5)  ---------------------------------------


    EDDIAG:  cpu time    5.6358: real time    2.8839
  RMM-DIIS:  cpu time   12.1410: real time    6.2971
    ORTHCH:  cpu time    0.2149: real time    0.1088
       DOS:  cpu time    0.0241: real time    0.0141
    --------------------------------------------
      LOOP:  cpu time   18.0157: real time    9.3038

 eigenvalue-minimisations  :  7360
 total energy-change (2. order) :-0.4202378E+01  (-0.2305811E+01)
 number of electron      33.0000000 magnetization 
 augmentation part       33.0000000 magnetization 

 Free energy of the ion-electron system (eV)
  ---------------------------------------------------
  alpha Z        PSCENC =       180.95685896
  Ewald energy   TEWEN  =     -2047.90029510
  -Hartree energ DENC   =      -397.98094314
  -exchange      EXHF   =         0.00000000
  -V(xc)+E(xc)   XCENC  =        74.80502972
  PAW double counting   =      1874.62222984    -1816.10279664
  entropy T*S    EENTRO =        -0.00141849
  eigenvalues    EBANDS =      -223.11774738
  atomic energy  EATOM  =      2306.65267270
  Solvation  Ediel_sol  =         0.00000000
  ---------------------------------------------------
  free energy    TOTEN  =       -48.06640953 eV

  energy without entropy =      -48.06499104  energy(sigma->0) =      -48.06593670


--------------------------------------------------------------------------------------------------------




--------------------------------------- Iteration      1(   6)  ---------------------------------------


    EDDIAG:  cpu time    5.9148: real time    3.0893
  RMM-DIIS:  cpu time   11.9317: real time    6.2562
    ORTHCH:  cpu time    0.3107: real time    0.1663
       DOS:  cpu time    0.0279: real time    0.0141
    --------------------------------------------
      LOOP:  cpu time   18.1851: real time    9.5258

 eigenvalue-minimisations  :  7360
 total energy-change (2. order) :-0.9584706E+00  (-0.3924123E+00)
 number of electron      33.0000000 magnetization 
 augmentation part       33.0000000 magnetization 

 Free energy of the ion-electron system (eV)
  ---------------------------------------------------
  alpha Z        PSCENC =       180.95685896
  Ewald energy   TEWEN  =     -2047.90029510
  -Hartree energ DENC   =      -397.98094314
  -exchange      EXHF   =         0.00000000
  -V(xc)+E(xc)   XCENC  =        74.80502972
  PAW double counting   =      1874.62222984    -1816.10279664
  entropy T*S    EENTRO =        -0.00170081
  eigenvalues    EBANDS =      -224.07593566
  atomic energy  EATOM  =      2306.65267270
  Solvation  Ediel_sol  =         0.00000000
  ---------------------------------------------------
  free energy    TOTEN  =       -49.02488014 eV

  energy without entropy =      -49.02317933  energy(sigma->0) =      -49.02431320


--------------------------------------------------------------------------------------------------------




--------------------------------------- Iteration      1(   7)  ---------------------------------------


    EDDIAG:  cpu time    5.4922: real time    2.7917
  RMM-DIIS:  cpu time   11.1526: real time    5.6815
    ORTHCH:  cpu time    0.2861: real time    0.1506
       DOS:  cpu time    0.0335: real time    0.0173
    --------------------------------------------
      LOOP:  cpu time   16.9643: real time    8.6410

 eigenvalue-minimisations  :  7360
 total energy-change (2. order) :-0.3607891E+00  (-0.2246681E+00)
 number of electron      33.0000000 magnetization 
 augmentation part       33.0000000 magnetization 

 Free energy of the ion-electron system (eV)
  ---------------------------------------------------
  alpha Z        PSCENC =       180.95685896
  Ewald energy   TEWEN  =     -2047.90029510
  -Hartree energ DENC   =      -397.98094314
  -exchange      EXHF   =         0.00000000
  -V(xc)+E(xc)   XCENC  =        74.80502972
  PAW double counting   =      1874.62222984    -1816.10279664
  entropy T*S    EENTRO =        -0.00177600
  eigenvalues    EBANDS =      -224.43664959
  atomic energy  EATOM  =      2306.65267270
  Solvation  Ediel_sol  =         0.00000000
  ---------------------------------------------------
  free energy    TOTEN  =       -49.38566926 eV

  energy without entropy =      -49.38389325  energy(sigma->0) =      -49.38507726


--------------------------------------------------------------------------------------------------------




--------------------------------------- Iteration      1(   8)  ---------------------------------------


    EDDIAG:  cpu time    6.1658: real time    3.2686
  RMM-DIIS:  cpu time   11.2945: real time    5.7988
    ORTHCH:  cpu time    0.2573: real time    0.1314
       DOS:  cpu time    0.0268: real time    0.0131
    --------------------------------------------
      LOOP:  cpu time   17.7444: real time    9.2119

 eigenvalue-minimisations  :  7360
 total energy-change (2. order) :-0.1353543E+00  (-0.6665513E-01)
 number of electron      33.0000000 magnetization 
 augmentation part       33.0000000 magnetization 

 Free energy of the ion-electron system (eV)
  ---------------------------------------------------
  alpha Z        PSCENC =       180.95685896
  Ewald energy   TEWEN  =     -2047.90029510
  -Hartree energ DENC   =      -397.98094314
  -exchange      EXHF   =         0.00000000
  -V(xc)+E(xc)   XCENC  =        74.80502972
  PAW double counting   =      1874.62222984    -1816.10279664
  entropy T*S    EENTRO =        -0.00175995
  eigenvalues    EBANDS =      -224.57201992
  atomic energy  EATOM  =      2306.65267270
  Solvation  Ediel_sol  =         0.00000000
  ---------------------------------------------------
  free energy    TOTEN  =       -49.52102354 eV

  energy without entropy =      -49.51926359  energy(sigma->0) =      -49.52043689


--------------------------------------------------------------------------------------------------------




--------------------------------------- Iteration      1(   9)  ---------------------------------------


    EDDIAG:  cpu time    5.5962: real time    2.8692
  RMM-DIIS:  cpu time   33.6216: real time   17.3256
    ORTHCH:  cpu time    0.2328: real time    0.1186
       DOS:  cpu time    0.0259: real time    0.0131
    --------------------------------------------
      LOOP:  cpu time   39.4765: real time   20.3265

 eigenvalue-minimisations  : 24940
 total energy-change (2. order) :-0.1230419E+00  (-0.9857828E-01)
 number of electron      33.0000000 magnetization 
 augmentation part       33.0000000 magnetization 

 Free energy of the ion-electron system (eV)
  ---------------------------------------------------
  alpha Z        PSCENC =       180.95685896
  Ewald energy   TEWEN  =     -2047.90029510
  -Hartree energ DENC   =      -397.98094314
  -exchange      EXHF   =         0.00000000
  -V(xc)+E(xc)   XCENC  =        74.80502972
  PAW double counting   =      1874.62222984    -1816.10279664
  entropy T*S    EENTRO =        -0.00174427
  eigenvalues    EBANDS =      -224.69507755
  atomic energy  EATOM  =      2306.65267270
  Solvation  Ediel_sol  =         0.00000000
  ---------------------------------------------------
  free energy    TOTEN  =       -49.64406548 eV

  energy without entropy =      -49.64232121  energy(sigma->0) =      -49.64348406


--------------------------------------------------------------------------------------------------------




--------------------------------------- Iteration      1(  10)  ---------------------------------------


    EDDIAG:  cpu time    5.7849: real time    3.0216
  RMM-DIIS:  cpu time   34.7990: real time   17.8690
    ORTHCH:  cpu time    0.2337: real time    0.1230
       DOS:  cpu time    0.0249: real time    0.0122
    --------------------------------------------
      LOOP:  cpu time   40.8424: real time   21.0257

 eigenvalue-minimisations  : 26576
 total energy-change (2. order) :-0.2556717E-01  (-0.2079942E-01)
 number of electron      33.0000000 magnetization 
 augmentation part       33.0000000 magnetization 

 Free energy of the ion-electron system (eV)
  ---------------------------------------------------
  alpha Z        PSCENC =       180.95685896
  Ewald energy   TEWEN  =     -2047.90029510
  -Hartree energ DENC   =      -397.98094314
  -exchange      EXHF   =         0.00000000
  -V(xc)+E(xc)   XCENC  =        74.80502972
  PAW double counting   =      1874.62222984    -1816.10279664
  entropy T*S    EENTRO =        -0.00173436
  eigenvalues    EBANDS =      -224.72065463
  atomic energy  EATOM  =      2306.65267270
  Solvation  Ediel_sol  =         0.00000000
  ---------------------------------------------------
  free energy    TOTEN  =       -49.66963266 eV

  energy without entropy =      -49.66789829  energy(sigma->0) =      -49.66905454


--------------------------------------------------------------------------------------------------------




--------------------------------------- Iteration      1(  11)  ---------------------------------------


    EDDIAG:  cpu time    5.7025: real time    2.9378
  RMM-DIIS:  cpu time   33.5100: real time   17.0110
    ORTHCH:  cpu time    0.2439: real time    0.1246
       DOS:  cpu time    0.0288: real time    0.0144
    --------------------------------------------
      LOOP:  cpu time   39.4852: real time   20.0878

 eigenvalue-minimisations  : 26677
 total energy-change (2. order) :-0.8199641E-02  (-0.5596559E-02)
 number of electron      33.0000000 magnetization 
 augmentation part       33.0000000 magnetization 

 Free energy of the ion-electron system (eV)
  ---------------------------------------------------
  alpha Z        PSCENC =       180.95685896
  Ewald energy   TEWEN  =     -2047.90029510
  -Hartree energ DENC   =      -397.98094314
  -exchange      EXHF   =         0.00000000
  -V(xc)+E(xc)   XCENC  =        74.80502972
  PAW double counting   =      1874.62222984    -1816.10279664
  entropy T*S    EENTRO =        -0.00173227
  eigenvalues    EBANDS =      -224.72885636
  atomic energy  EATOM  =      2306.65267270
  Solvation  Ediel_sol  =         0.00000000
  ---------------------------------------------------
  free energy    TOTEN  =       -49.67783230 eV

  energy without entropy =      -49.67610003  energy(sigma->0) =      -49.67725487


--------------------------------------------------------------------------------------------------------




--------------------------------------- Iteration      1(  12)  ---------------------------------------


    EDDIAG:  cpu time    5.5807: real time    2.8393
  RMM-DIIS:  cpu time   33.0186: real time   16.7784
    ORTHCH:  cpu time    0.2198: real time    0.1116
       DOS:  cpu time    0.0233: real time    0.0117
    CHARGE:  cpu time    1.0263: real time    0.8607
    MIXING:  cpu time    0.0016: real time    0.0016
    --------------------------------------------
      LOOP:  cpu time   39.8703: real time   20.6033

 eigenvalue-minimisations  : 26147
 total energy-change (2. order) :-0.2663389E-02  (-0.1869576E-02)
 number of electron      33.0000001 magnetization 
 augmentation part        3.9356819 magnetization 

 Broyden mixing:
  rms(total) = 0.35965E+01    rms(broyden)= 0.35964E+01
  rms(prec ) = 0.60790E+01
  weight for this iteration     100.00

 Free energy of the ion-electron system (eV)
  ---------------------------------------------------
  alpha Z        PSCENC =       180.95685896
  Ewald energy   TEWEN  =     -2047.90029510
  -Hartree energ DENC   =      -397.98094314
  -exchange      EXHF   =         0.00000000
  -V(xc)+E(xc)   XCENC  =        74.80502972
  PAW double counting   =      1874.62222984    -1816.10279664
  entropy T*S    EENTRO =        -0.00173170
  eigenvalues    EBANDS =      -224.73152033
  atomic energy  EATOM  =      2306.65267270
  Solvation  Ediel_sol  =         0.00000000
  ---------------------------------------------------
  free energy    TOTEN  =       -49.68049569 eV

  energy without entropy =      -49.67876399  energy(sigma->0) =      -49.67991845


--------------------------------------------------------------------------------------------------------




--------------------------------------- Iteration      1(  13)  ---------------------------------------


    POTLOK:  cpu time    0.0353: real time    0.0358
    SETDIJ:  cpu time    0.0473: real time    0.0478
    EDDIAG:  cpu time    5.4595: real time    2.7767
  RMM-DIIS:  cpu time   25.8355: real time   13.3223
    ORTHCH:  cpu time    0.2175: real time    0.1103
       DOS:  cpu time    0.0257: real time    0.0162
    CHARGE:  cpu time    0.8991: real time    0.7557
    MIXING:  cpu time    0.0021: real time    0.0107
    --------------------------------------------
      LOOP:  cpu time   32.5222: real time   17.0756

 eigenvalue-minimisations  : 19258
 total energy-change (2. order) : 0.8868246E+01  (-0.1201013E+01)
 number of electron      33.0000001 magnetization 
 augmentation part        5.2904547 magnetization 

 Broyden mixing:
  rms(total) = 0.21743E+01    rms(broyden)= 0.21741E+01
  rms(prec ) = 0.47745E+01
  weight for this iteration     100.00

 eigenvalues of (default mixing * dielectric matrix)
  average eigenvalue GAMMA=   0.7433
  0.7433

 Free energy of the ion-electron system (eV)
  ---------------------------------------------------
  alpha Z        PSCENC =       180.95685896
  Ewald energy   TEWEN  =     -2047.90029510
  -Hartree energ DENC   =      -443.54805997
  -exchange      EXHF   =         0.00000000
  -V(xc)+E(xc)   XCENC  =        79.34818892
  PAW double counting   =      2494.74049178    -2438.73737745
  entropy T*S    EENTRO =        -0.00392035
  eigenvalues    EBANDS =      -172.32080875
  atomic energy  EATOM  =      2306.65267270
  Solvation  Ediel_sol  =         0.00000000
  ---------------------------------------------------
  free energy    TOTEN  =       -40.81224928 eV

  energy without entropy =      -40.80832893  energy(sigma->0) =      -40.81094250


--------------------------------------------------------------------------------------------------------




--------------------------------------- Iteration      1(  14)  ---------------------------------------


    POTLOK:  cpu time    0.0381: real time    0.0390
    SETDIJ:  cpu time    0.0478: real time    0.0484
    EDDIAG:  cpu time    5.6654: real time    2.9093
  RMM-DIIS:  cpu time   26.7323: real time   13.6716
    ORTHCH:  cpu time    0.2146: real time    0.1095
       DOS:  cpu time    0.0251: real time    0.0125
    CHARGE:  cpu time    0.9973: real time    0.8329
    MIXING:  cpu time    0.0013: real time    0.0013
    --------------------------------------------
      LOOP:  cpu time   33.7218: real time   17.6246

 eigenvalue-minimisations  : 20220
 total energy-change (2. order) : 0.8118918E+00  (-0.1883828E+00)
 number of electron      33.0000001 magnetization 
 augmentation part        3.8804180 magnetization 

 Broyden mixing:
  rms(total) = 0.16928E+01    rms(broyden)= 0.16928E+01
  rms(prec ) = 0.28746E+01
  weight for this iteration     100.00

 eigenvalues of (default mixing * dielectric matrix)
  average eigenvalue GAMMA=   1.3584
  2.2789  0.4379

 Free energy of the ion-electron system (eV)
  ---------------------------------------------------
  alpha Z        PSCENC =       180.95685896
  Ewald energy   TEWEN  =     -2047.90029510
  -Hartree energ DENC   =      -423.67704425
  -exchange      EXHF   =         0.00000000
  -V(xc)+E(xc)   XCENC  =        77.28483471
  PAW double counting   =      2697.58318908    -2644.09428779
  entropy T*S    EENTRO =        -0.01081464
  eigenvalues    EBANDS =      -186.79547113
  atomic energy  EATOM  =      2306.65267270
  Solvation  Ediel_sol  =         0.00000000
  ---------------------------------------------------
  free energy    TOTEN  =       -40.00035747 eV

  energy without entropy =      -39.98954284  energy(sigma->0) =      -39.99675260


[...]
     39      27.2203      0.00000
     40      27.2203      0.00000
     41      31.3714      0.00000
     42      31.3770      0.00000
     43      31.8365      0.00000
     44      33.3068      0.00000
     45      33.5118      0.00000
     46      34.2484      0.00000

 k-point   157 :       0.4615    0.4615    0.4615
  band No.  band energies     occupation 
      1     -28.9910      2.00000
      2     -12.8229      2.00000
      3     -12.7677      2.00000
      4     -12.7677      2.00000
      5     -11.3988      2.00000
      6     -11.3988      2.00000
      7     -11.3544      2.00000
      8      -1.6930      2.00000
      9      -1.0828      2.00000
     10      -1.0828      2.00000
     11      -0.5071      2.00000
     12      -0.4693      2.00000
     13      -0.4693      2.00000
     14       3.5170      2.00001
     15       3.5170      2.00001
     16       3.5480      2.00002
     17       6.5389     -0.00000
     18       6.5429     -0.00000
     19       6.5429     -0.00000
     20      10.4155      0.00000
     21      10.4155      0.00000
     22      10.6275      0.00000
     23      10.6896      0.00000
     24      10.6896      0.00000
     25      13.3856      0.00000
     26      13.3856      0.00000
     27      14.0800      0.00000
     28      18.2080      0.00000
     29      18.2923      0.00000
     30      18.2923      0.00000
     31      20.2737      0.00000
     32      20.9278      0.00000
     33      20.9523      0.00000
     34      20.9523      0.00000
     35      23.5225      0.00000
     36      23.5225      0.00000
     37      23.7217      0.00000
     38      26.8080      0.00000
     39      27.0044      0.00000
     40      27.0044      0.00000
     41      31.6499      0.00000
     42      31.6610      0.00000
     43      31.9865      0.00000
     44      33.2176      0.00000
     45      33.4219      0.00000
     46      55.6811      0.00000

 k-point   158 :       0.4744    0.4744    0.4744
  band No.  band energies     occupation 
      1     -28.9904      2.00000
      2     -12.7859      2.00000
      3     -12.7605      2.00000
      4     -12.7605      2.00000
      5     -11.4098      2.00000
      6     -11.4098      2.00000
      7     -11.3892      2.00000
      8      -1.7173      2.00000
      9      -1.0963      2.00000
     10      -1.0963      2.00000
     11      -0.4939      2.00000
     12      -0.4768      2.00000
     13      -0.4768      2.00000
     14       3.5453      2.00002
     15       3.5453      2.00002
     16       3.5593      2.00004
     17       6.5552     -0.00000
     18       6.5570     -0.00000
     19       6.5570     -0.00000
     20      10.4603      0.00000
     21      10.4603      0.00000
     22      10.5893      0.00000
     23      10.6337      0.00000
     24      10.6337      0.00000
     25      13.4099      0.00000
     26      13.4099      0.00000
     27      14.0449      0.00000
     28      18.2422      0.00000
     29      18.2790      0.00000
     30      18.2790      0.00000
     31      20.3494      0.00000
     32      20.9275      0.00000
     33      20.9369      0.00000
     34      20.9369      0.00000
     35      23.5986      0.00000
     36      23.5986      0.00000
     37      23.6921      0.00000
     38      26.7464      0.00000
     39      26.8372      0.00000
     40      26.8372      0.00000
     41      31.9066      0.00000
     42      32.0427      0.00000
     43      32.4619      0.00000
     44      55.8648      0.00000
     45      56.0449      0.00000
     46      64.9559      0.00000

 k-point   159 :       0.4872    0.4872    0.4872
  band No.  band energies     occupation 
      1     -28.9901      2.00000
      2     -12.7625      2.00000
      3     -12.7560      2.00000
      4     -12.7560      2.00000
      5     -11.4166      2.00000
      6     -11.4166      2.00000
      7     -11.4113      2.00000
      8      -1.7321      2.00000
      9      -1.1045      2.00000
     10      -1.1045      2.00000
     11      -0.4857      2.00000
     12      -0.4814      2.00000
     13      -0.4814      2.00000
     14       3.5625      2.00004
     15       3.5625      2.00004
     16       3.5660      2.00004
     17       6.5650     -0.00000
     18       6.5655     -0.00000
     19       6.5655     -0.00000
     20      10.4997      0.00000
     21      10.4997      0.00000
     22      10.5657      0.00000
     23      10.5872      0.00000
     24      10.5872      0.00000
     25      13.4245      0.00000
     26      13.4245      0.00000
     27      14.0238      0.00000
     28      18.2621      0.00000
     29      18.2712      0.00000
     30      18.2712      0.00000
     31      20.3997      0.00000
     32      20.9252      0.00000
     33      20.9272      0.00000
     34      20.9272      0.00000
     35      23.6500      0.00000
     36      23.6500      0.00000
     37      23.6742      0.00000
     38      26.7074      0.00000
     39      26.7307      0.00000
     40      26.7307      0.00000
     41      32.1274      0.00000
     42      32.7358      0.00000
     43      37.3974      0.00000
     44      39.2197      0.00000
     45      55.9501      0.00000
     46      56.9410      0.00000

 k-point   160 :       0.5000    0.5000    0.5000
  band No.  band energies     occupation 
      1     -28.9900      2.00000
      2     -12.7545      2.00000
      3     -12.7545      2.00000
      4     -12.7545      2.00000
      5     -11.4189      2.00000
      6     -11.4189      2.00000
      7     -11.4189      2.00000
      8      -1.7371      2.00000
      9      -1.1073      2.00000
     10      -1.1073      2.00000
     11      -0.4828      2.00000
     12      -0.4828      2.00000
     13      -0.4828      2.00000
     14       3.5683      2.00005
     15       3.5683      2.00005
     16       3.5683      2.00005
     17       6.5683     -0.00000
     18       6.5683     -0.00000
     19       6.5683     -0.00000
     20      10.5267      0.00000
     21      10.5267      0.00000
     22      10.5578      0.00000
     23      10.5578      0.00000
     24      10.5578      0.00000
     25      13.4294      0.00000
     26      13.4294      0.00000
     27      14.0167      0.00000
     28      18.2686      0.00000
     29      18.2686      0.00000
     30      18.2686      0.00000
     31      20.4175      0.00000
     32      20.9239      0.00000
     33      20.9239      0.00000
     34      20.9239      0.00000
     35      23.6682      0.00000
     36      23.6682      0.00000
     37      23.6682      0.00000
     38      26.6940      0.00000
     39      26.6940      0.00000
     40      26.6940      0.00000
     41      32.2207      0.00000
     42      32.2417      0.00000
     43      35.6838      0.00000
     44      38.9816      0.00000
     45      55.8324      0.00000
     46      65.3464      0.00000


--------------------------------------------------------------------------------------------------------


 soft charge-density along one line, spin component           1
         0         1         2         3         4         5         6         7         8         9
x    28.7225    0.0000   -0.2093   -0.0000    8.6882    0.0000   -0.6824   -0.0000    0.4338    0.0000
x    -0.0539    0.0000   -0.1337   -0.0000    0.0307    0.0000   -0.0339    0.0000    0.0040    0.0000
x    -0.0024   -0.0000    0.0002    0.0000    0.0000    0.0000
y    28.7225    0.0000   -0.2093   -0.0000    8.6882    0.0000   -0.6824   -0.0000    0.4338    0.0000
y    -0.0539    0.0000   -0.1337   -0.0000    0.0307    0.0000   -0.0339    0.0000    0.0040    0.0000
y    -0.0024   -0.0000    0.0002    0.0000    0.0000    0.0000
z    28.7225    0.0000   -0.2093   -0.0000    8.6882    0.0000   -0.6824   -0.0000    0.4338    0.0000
z    -0.0539    0.0000   -0.1337   -0.0000    0.0307    0.0000   -0.0339    0.0000    0.0040    0.0000
z    -0.0024   -0.0000    0.0002    0.0000    0.0000    0.0000
 total charge-density along one line
x    33.0000    0.0000   -1.6320    0.0000   11.4697    0.0000   -1.2543    0.0000    1.2771   -0.0000
x    -0.1709    0.0000    0.0337   -0.0000    0.0141    0.0000   -0.0334   -0.0000    0.0068   -0.0000
x    -0.0060   -0.0000   -0.0002   -0.0000    0.0017   -0.0000   -0.0001   -0.0000   -0.0005    0.0000
x     0.0002   -0.0000   -0.0000   -0.0000   -0.0001   -0.0000    0.0001    0.0000    0.0000    0.0000
x    -0.0001   -0.0000    0.0000   -0.0000    0.0000    0.0000   -0.0000    0.0000   -0.0000    0.0000
y    33.0000    0.0000   -1.6320    0.0000   11.4697    0.0000   -1.2543    0.0000    1.2771   -0.0000
y    -0.1709    0.0000    0.0337   -0.0000    0.0141   -0.0000   -0.0334   -0.0000    0.0068   -0.0000
y    -0.0060    0.0000   -0.0002   -0.0000    0.0017   -0.0000   -0.0001   -0.0000   -0.0005   -0.0000
y     0.0002    0.0000   -0.0000   -0.0000   -0.0001    0.0000    0.0001   -0.0000    0.0000    0.0000
y    -0.0001   -0.0000    0.0000    0.0000    0.0000    0.0000   -0.0000    0.0000   -0.0000    0.0000
z    33.0000    0.0000   -1.6320   -0.0000   11.4697    0.0000   -1.2543    0.0000    1.2771   -0.0000
z    -0.1709    0.0000    0.0337   -0.0000    0.0141    0.0000   -0.0334    0.0000    0.0068    0.0000
z    -0.0060   -0.0000   -0.0002    0.0000    0.0017   -0.0000   -0.0001    0.0000   -0.0005   -0.0000
z     0.0002    0.0000   -0.0000   -0.0000   -0.0001    0.0000    0.0001   -0.0000    0.0000   -0.0000
z    -0.0001    0.0000    0.0000    0.0000    0.0000    0.0000   -0.0000    0.0000   -0.0000    0.0000
 
 pseudopotential strength for first ion, spin component:           1
-11.963  -2.460  -0.000   0.000  -0.000  -0.000   0.000  -0.000
 -2.460  -2.260  -0.000   0.000  -0.000  -0.000   0.000  -0.000
 -0.000  -0.000 -14.451   0.000  -0.000 -14.184   0.000  -0.000
  0.000   0.000   0.000 -14.451  -0.000   0.000 -14.184  -0.000
 -0.000  -0.000  -0.000  -0.000 -14.451  -0.000  -0.000 -14.184
 -0.000  -0.000 -14.184   0.000  -0.000 -13.919   0.000  -0.000
  0.000   0.000   0.000 -14.184  -0.000   0.000 -13.919  -0.000
 -0.000  -0.000  -0.000  -0.000 -14.184  -0.000  -0.000 -13.919
 -0.000  -0.000  -0.000  -0.000  -0.000  -0.000  -0.000  -0.000
  0.000   0.000   0.000  -0.000  -0.000   0.000  -0.000  -0.000
  0.000   0.000   0.000   0.000   0.000   0.000   0.000   0.000
 -0.000  -0.000  -0.000  -0.000   0.000  -0.000  -0.000   0.000
 -0.000  -0.000   0.000   0.000  -0.000   0.000   0.000  -0.000
 -0.000  -0.000  -0.000  -0.000  -0.000  -0.000  -0.000  -0.000
  0.000   0.000   0.000  -0.000  -0.000   0.000  -0.000  -0.000
  0.000   0.000   0.000   0.000   0.000   0.000   0.000   0.000
 -0.000  -0.000  -0.000  -0.000   0.000  -0.000  -0.000   0.000
 -0.000  -0.000   0.000   0.000  -0.000   0.000   0.000  -0.000
 total augmentation occupancy for first ion, spin component:           1
  2.000  -0.013   0.000   0.000   0.000   0.000   0.000   0.000  -0.000  -0.000  -0.000  -0.000   0.000  -0.000   0.000   0.000
 -0.013   0.346   0.000   0.000   0.000   0.000   0.000   0.000  -0.000   0.000   0.000  -0.000  -0.000  -0.000   0.000  -0.000
  0.000   0.000   9.007   0.000   0.000  -7.581  -0.000   0.000   0.000   0.000   0.000   0.000   0.000   0.000   0.000   0.000
  0.000   0.000   0.000   9.007   0.000   0.000  -7.581   0.000   0.000   0.000   0.000   0.000   0.000   0.000   0.000   0.000
  0.000   0.000   0.000   0.000   9.007   0.000  -0.000  -7.581   0.000   0.000   0.000   0.000   0.000   0.000   0.000   0.000
  0.000   0.000  -7.581   0.000   0.000   8.209  -0.000   0.000   0.000   0.000   0.000   0.000   0.000   0.000   0.000   0.000
  0.000   0.000  -0.000  -7.581  -0.000   0.000   8.209  -0.000   0.000   0.000   0.000   0.000   0.000   0.000   0.000   0.000
  0.000   0.000   0.000   0.000  -7.581   0.000   0.000   8.209   0.000   0.000   0.000   0.000   0.000   0.000   0.000   0.000
  0.000  -0.000   0.000   0.000   0.000   0.000   0.000   0.000   5.001   0.000   0.000   0.000   0.000  -2.842   0.000   0.000
  0.000   0.000   0.000   0.000   0.000   0.000   0.000   0.000  -0.000   5.001  -0.000  -0.000   0.000  -0.000  -2.842   0.000
 -0.000   0.000   0.000   0.000   0.000   0.000   0.000   0.000   0.000  -0.000   3.672  -0.000   0.000  -0.000  -0.000  -2.093
 -0.000  -0.000   0.000   0.000   0.000   0.000   0.000   0.000   0.000  -0.000   0.000   5.001  -0.000   0.000  -0.000   0.000
  0.000   0.000   0.000   0.000   0.000   0.000   0.000   0.000   0.000   0.000   0.000   0.000   3.672   0.000  -0.000   0.000
 -0.000  -0.000   0.000   0.000   0.000   0.000   0.000   0.000  -2.842  -0.000  -0.000   0.000   0.000   1.617   0.000  -0.000
  0.000   0.000   0.000   0.000   0.000   0.000   0.000   0.000  -0.000  -2.842  -0.000   0.000   0.000   0.000   1.617  -0.000
  0.000  -0.000   0.000   0.000   0.000   0.000   0.000   0.000  -0.000   0.000  -2.093   0.000   0.000  -0.000   0.000   1.195
  0.000   0.000   0.000   0.000   0.000   0.000   0.000   0.000   0.000   0.000  -0.000  -2.842  -0.000   0.000  -0.000  -0.000
  0.000  -0.000   0.000   0.000   0.000   0.000   0.000   0.000   0.000  -0.000  -0.000   0.000  -2.093  -0.000  -0.000   0.000


------------------------ aborting loop because EDIFF is reached ----------------------------------------


 


 total charge     
 
# of ion       s       p       d       tot
------------------------------------------
    1        1.997   5.837   0.194   8.028
    2        0.475   1.296   3.394   5.165
    3        1.520   3.752   0.000   5.272
    4        1.543   3.490   0.000   5.033
    5        1.562   3.239   0.000   4.801
--------------------------------------------------
tot          7.097  17.614   3.588  28.299
 
    CHARGE:  cpu time    0.8816: real time    0.7988
    FORLOC:  cpu time    0.0047: real time    0.0047
    FORNL :  cpu time    4.1308: real time    4.2093
    STRESS:  cpu time    9.9707: real time    5.5102
    FORCOR:  cpu time    0.0394: real time    0.0397
    FORHAR:  cpu time    0.0107: real time    0.0107
    MIXING:  cpu time    0.0016: real time    0.0016
    OFIELD:  cpu time    0.0000: real time    0.0000

  FORCE on cell =-STRESS in cart. coord.  units (eV):
  Direction    XX          YY          ZZ          XY          YZ          ZX
  --------------------------------------------------------------------------------------
  Alpha Z   180.95686   180.95686   180.95686
  Ewald    -682.63392  -682.63392  -682.63392    -0.00000    -0.00000    -0.00000
  Hartree   142.14938   142.14938   142.14938    -0.00000    -0.00000    -0.00000
  E(xc)    -149.32914  -149.32914  -149.32914    -0.00000     0.00000    -0.00000
  Local       8.61421     8.61421     8.61421     0.00000     0.00000     0.00000
  n-local  -110.23490  -108.05797  -104.90076    -0.37540    -0.18417    -0.18427
  augment    45.13500    45.13500    45.13500     0.00000     0.00000     0.00000
  Kinetic   553.25211   568.52482   571.58640    -1.67244    -0.90330    -0.90322
  Fock        0.00000     0.00000     0.00000     0.00000     0.00000     0.00000
  -------------------------------------------------------------------------------------
  Total       1.61562     1.61562     1.61562     0.00000     0.00000    -0.00000
  in kB      45.48267    45.48267    45.48267     0.00000     0.00000    -0.00000
  external pressure =       45.48 kB  Pullay stress =        0.00 kB


 VOLUME and BASIS-vectors are now :
 -----------------------------------------------------------------------------
  energy-cutoff  :      600.00
  volume of cell :       56.91
      direct lattice vectors                 reciprocal lattice vectors
     3.846520000  0.000000000  0.000000000     0.259975250  0.000000000  0.000000000
     0.000000000  3.846520000  0.000000000     0.000000000  0.259975250  0.000000000
     0.000000000  0.000000000  3.846520000     0.000000000  0.000000000  0.259975250

  length of vectors
     3.846520000  3.846520000  3.846520000     0.259975250  0.259975250  0.259975250


 FORCES acting on ions
    electron-ion (+dipol)            ewald-force                    non-local-force                 convergence-correction
 -----------------------------------------------------------------------------------------------
   -.292E-13 -.894E-16 -.136E-14   -.479E-14 -.313E-14 -.318E-14   0.000E+00 0.000E+00 0.000E+00   0.183E-13 -.236E-13 -.105E-13
   0.274E-13 0.423E-13 0.435E-13   -.289E-14 -.187E-14 0.208E-15   0.000E+00 0.000E+00 0.000E+00   -.712E-14 0.540E-14 -.473E-14
   0.121E-12 0.179E-12 -.132E-13   0.406E-14 -.102E-14 0.290E-15   0.000E+00 0.000E+00 0.000E+00   0.180E-13 -.329E-13 -.161E-13
   0.122E-12 -.123E-13 0.179E-12   0.190E-14 0.339E-14 0.147E-14   0.000E+00 0.000E+00 0.000E+00   0.127E-13 -.272E-13 -.361E-13
   -.562E-13 0.179E-12 0.179E-12   0.166E-14 0.231E-14 0.145E-14   0.000E+00 0.000E+00 0.000E+00   0.435E-13 -.342E-13 -.423E-13
 -----------------------------------------------------------------------------------------------
   0.185E-12 0.389E-12 0.387E-12   -.550E-16 -.318E-15 0.244E-15   0.000E+00 0.000E+00 0.000E+00   0.854E-13 -.112E-12 -.110E-12
 
 
 POSITION                                       TOTAL-FORCE (eV/Angst)
 -----------------------------------------------------------------------------------
      0.00000      0.00000      0.00000         0.000000      0.000000      0.000000
      1.92326      1.92326      1.92326         0.000000      0.000000      0.000000
      1.92326      1.92326      0.00000         0.000000      0.000000      0.000000
      1.92326      0.00000      1.92326         0.000000      0.000000      0.000000
      0.00000      1.92326      1.92326         0.000000      0.000000      0.000000
 -----------------------------------------------------------------------------------
    total drift:                                0.000000      0.000000      0.000000


--------------------------------------------------------------------------------------------------------



  FREE ENERGIE OF THE ION-ELECTRON SYSTEM (eV)
  ---------------------------------------------------
  free  energy   TOTEN  =       -37.72544430 eV

  energy  without entropy=      -37.71833393  energy(sigma->0) =      -37.72307417
 


--------------------------------------------------------------------------------------------------------


    POTLOK:  cpu time    0.0823: real time    0.0832


--------------------------------------------------------------------------------------------------------


 writing wavefunctions
     LOOP+:  cpu time  553.7218: real time  290.2746
    4ORBIT:  cpu time    0.0000: real time    0.0000
 


 total charge     
 
# of ion       s       p       d       tot
------------------------------------------
    1        1.997   5.837   0.194   8.028
    2        0.475   1.296   3.394   5.165
    3        1.520   3.752   0.000   5.272
    4        1.543   3.490   0.000   5.033
    5        1.562   3.239   0.000   4.801
--------------------------------------------------
tot          7.097  17.614   3.588  28.299
 

 total amount of memory used by VASP MPI-rank0   406771. kBytes
=======================================================================

   base      :      30000. kBytes
   nonl-proj :     133902. kBytes
   grid      :       7861. kBytes
   one-center:         77. kBytes
   wavefun   :     234931. kBytes
 
  
  
 General timing and accounting informations for this job:
 ========================================================
  
                  Total CPU time used (sec):      557.392
                            User time (sec):      552.174
                          System time (sec):        5.218
                         Elapsed time (sec):      293.555
  
                   Maximum memory used (kb):   444444672.
                   Average memory used (kb):           0.
  
                          Minor page faults:       160954
                          Major page faults:          762
                 Voluntary context switches:           74
