PROCAR lm decomposed
# of k-points:   80         # of bands:   46         # of ions:    5

 k-point     1 :    0.00000000 0.00000000 0.00000000     weight = 0.01250000

band     1 # energy  -29.05665776 # occ.  2.00000000
 
ion      s     py     pz     px    dxy    dyz    dz2    dxz  x2-y2    tot
    1  0.972  0.000  0.000  0.000  0.000  0.000  0.000  0.000  0.000  0.972
    2  0.000  0.000  0.000  0.000  0.000  0.000  0.000  0.000  0.000  0.000
    3  0.000  0.000  0.000  0.000  0.000  0.000  0.000  0.000  0.000  0.000
    4  0.000  0.000  0.000  0.000  0.000  0.000  0.000  0.000  0.000  0.000
    5  0.000  0.000  0.000  0.000  0.000  0.000  0.000  0.000  0.000  0.000
tot    0.974  0.000  0.000  0.000  0.000  0.000  0.000  0.000  0.000  0.974
 
band     2 # energy  -14.29356300 # occ.  2.00000000
 
ion      s     py     pz     px    dxy    dyz    dz2    dxz  x2-y2    tot
    1  0.011  0.000  0.000  0.000  0.000  0.000  0.000  0.000  0.000  0.011
    2  0.138  0.000  0.000  0.000  0.000  0.000  0.000  0.000  0.000  0.138
    3  0.234  0.000  0.000  0.000  0.000  0.000  0.000  0.000  0.000  0.234
    4  0.234  0.000  0.000  0.000  0.000  0.000  0.000  0.000  0.000  0.234
    5  0.234  0.000  0.000  0.000  0.000  0.000  0.000  0.000  0.000  0.234
tot    0.852  0.000  0.000  0.000  0.000  0.000  0.000  0.000  0.000  0.852
 
band     3 # energy  -13.08003153 # occ.  2.00000000
 
ion      s     py     pz     px    dxy    dyz    dz2    dxz  x2-y2    tot
    1  0.000  0.000  0.000  0.000  0.000  0.000  0.002  0.000  0.000  0.002
    2  0.000  0.000  0.000  0.000  0.000  0.000  0.130  0.000  0.007  0.137
    3  0.493  0.000  0.000  0.000  0.000  0.000  0.000  0.000  0.000  0.493
    4  0.056  0.000  0.000  0.000  0.000  0.000  0.000  0.000  0.000  0.056
    5  0.229  0.000  0.000  0.000  0.000  0.000  0.000  0.000  0.000  0.229
tot    0.778  0.000  0.000  0.000  0.000  0.000  0.132  0.000  0.007  0.917
 
band     4 # energy  -13.08003153 # occ.  2.00000000
 
ion      s     py     pz     px    dxy    dyz    dz2    dxz  x2-y2    tot
    1  0.000  0.000  0.000  0.000  0.000  0.000  0.000  0.000  0.002  0.002
    2  0.000  0.000  0.000  0.000  0.000  0.000  0.007  0.000  0.130  0.137
    3  0.026  0.000  0.000  0.000  0.000  0.000  0.000  0.000  0.000  0.026
    4  0.462  0.000  0.000  0.000  0.000  0.000  0.000  0.000  0.000  0.462
    5  0.290  0.000  0.000  0.000  0.000  0.000  0.000  0.000  0.000  0.290
tot    0.778  0.000  0.000  0.000  0.000  0.000  0.007  0.000  0.132  0.917
 
band     5 # energy  -11.09109116 # occ.  2.00000000
 
ion      s     py     pz     px    dxy    dyz    dz2    dxz  x2-y2    tot
    1  0.000  0.408  0.075  0.456  0.000  0.000  0.000  0.000  0.000  0.939
    2  0.000  0.001  0.000  0.001  0.000  0.000  0.000  0.000  0.000  0.002
    3  0.000  0.001  0.000  0.001  0.000  0.000  0.000  0.000  0.000  0.003
    4  0.000  0.000  0.000  0.001  0.000  0.000  0.000  0.000  0.000  0.002
    5  0.000  0.001  0.000  0.000  0.000  0.000  0.000  0.000  0.000  0.002
tot    0.000  0.412  0.076  0.460  0.000  0.000  0.000  0.000  0.000  0.948
 
band     6 # energy  -11.09109116 # occ.  2.00000000
 
ion      s     py     pz     px    dxy    dyz    dz2    dxz  x2-y2    tot
    1  0.000  0.320  0.525  0.094  0.000  0.000  0.000  0.000  0.000  0.939
    2  0.000  0.001  0.001  0.000  0.000  0.000  0.000  0.000  0.000  0.002
    3  0.000  0.001  0.000  0.000  0.000  0.000  0.000  0.000  0.000  0.002
    4  0.000  0.000  0.002  0.000  0.000  0.000  0.000  0.000  0.000  0.002
    5  0.000  0.001  0.002  0.000  0.000  0.000  0.000  0.000  0.000  0.003
tot    0.000  0.323  0.529  0.095  0.000  0.000  0.000  0.000  0.000  0.948
 
band     7 # energy  -11.09109115 # occ.  2.00000000
 
ion      s     py     pz     px    dxy    dyz    dz2    dxz  x2-y2    tot
    1  0.000  0.211  0.339  0.389  0.000  0.000  0.000  0.000  0.000  0.939
    2  0.000  0.001  0.001  0.001  0.000  0.000  0.000  0.000  0.000  0.002
    3  0.000  0.001  0.000  0.001  0.000  0.000  0.000  0.000  0.000  0.002
    4  0.000  0.000  0.001  0.001  0.000  0.000  0.000  0.000  0.000  0.002
    5  0.000  0.001  0.001  0.000  0.000  0.000  0.000  0.000  0.000  0.002
tot    0.000  0.213  0.342  0.392  0.000  0.000  0.000  0.000  0.000  0.948
 
band     8 # energy    0.17590632 # occ.  2.00000000
 
ion      s     py     pz     px    dxy    dyz    dz2    dxz  x2-y2    tot
    1  0.000  0.005  0.001  0.025  0.000  0.000  0.000  0.000  0.000  0.031
    2  0.000  0.037  0.004  0.197  0.000  0.000  0.000  0.000  0.000  0.238
    3  0.000  0.020  0.006  0.105  0.000  0.000  0.000  0.000  0.000  0.131
    4  0.000  0.051  0.002  0.105  0.000  0.000  0.000  0.000  0.000  0.158
    5  0.000  0.020  0.002  0.272  0.000  0.000  0.000  0.000  0.000  0.294
tot    0.000  0.132  0.016  0.703  0.000  0.000  0.000  0.000  0.000  0.851
 
band     9 # energy    0.17590633 # occ.  2.00000000
 
ion      s     py     pz     px    dxy    dyz    dz2    dxz  x2-y2    tot
    1  0.000  0.002  0.028  0.000  0.000  0.000  0.000  0.000  0.000  0.031
    2  0.000  0.019  0.217  0.003  0.000  0.000  0.000  0.000  0.000  0.238
    3  0.000  0.010  0.300  0.001  0.000  0.000  0.000  0.000  0.000  0.311
    4  0.000  0.026  0.115  0.001  0.000  0.000  0.000  0.000  0.000  0.142
    5  0.000  0.010  0.115  0.004  0.000  0.000  0.000  0.000  0.000  0.129
tot    0.000  0.066  0.775  0.009  0.000  0.000  0.000  0.000  0.000  0.851
 
band    10 # energy    0.17590634 # occ.  2.00000000
 
ion      s     py     pz     px    dxy    dyz    dz2    dxz  x2-y2    tot
    1  0.000  0.023  0.002  0.005  0.000  0.000  0.000  0.000  0.000  0.031
    2  0.000  0.183  0.017  0.039  0.000  0.000  0.000  0.000  0.000  0.238
    3  0.000  0.097  0.023  0.021  0.000  0.000  0.000  0.000  0.000  0.141
    4  0.000  0.252  0.009  0.021  0.000  0.000  0.000  0.000  0.000  0.282
    5  0.000  0.097  0.009  0.053  0.000  0.000  0.000  0.000  0.000  0.160
tot    0.000  0.653  0.060  0.138  0.000  0.000  0.000  0.000  0.000  0.851
 
band    11 # energy    2.15779039 # occ.  2.00000000
 
ion      s     py     pz     px    dxy    dyz    dz2    dxz  x2-y2    tot
    1  0.000  0.000  0.000  0.000  0.000  0.000  0.000  0.000  0.000  0.000
    2  0.000  0.000  0.000  0.000  0.000  0.000  0.000  0.000  0.000  0.000
    3  0.000  0.000  0.000  0.350  0.000  0.000  0.000  0.000  0.000  0.350
    4  0.000  0.000  0.001  0.350  0.000  0.000  0.000  0.000  0.000  0.351
    5  0.000  0.000  0.001  0.000  0.000  0.000  0.000  0.000  0.000  0.001
tot    0.000  0.000  0.002  0.700  0.000  0.000  0.000  0.000  0.000  0.702
 
band    12 # energy    2.15779043 # occ.  2.00000000
 
ion      s     py     pz     px    dxy    dyz    dz2    dxz  x2-y2    tot
    1  0.000  0.000  0.000  0.000  0.000  0.000  0.000  0.000  0.000  0.000
    2  0.000  0.000  0.000  0.000  0.000  0.000  0.000  0.000  0.000  0.000
    3  0.000  0.226  0.000  0.000  0.000  0.000  0.000  0.000  0.000  0.227
    4  0.000  0.000  0.124  0.000  0.000  0.000  0.000  0.000  0.000  0.125
    5  0.000  0.226  0.124  0.000  0.000  0.000  0.000  0.000  0.000  0.351
tot    0.000  0.453  0.249  0.001  0.000  0.000  0.000  0.000  0.000  0.702
 
band    13 # energy    2.15779044 # occ.  2.00000000
 
ion      s     py     pz     px    dxy    dyz    dz2    dxz  x2-y2    tot
    1  0.000  0.000  0.000  0.000  0.000  0.000  0.000  0.000  0.000  0.000
    2  0.000  0.000  0.000  0.000  0.000  0.000  0.000  0.000  0.000  0.000
    3  0.000  0.125  0.000  0.001  0.000  0.000  0.000  0.000  0.000  0.125
    4  0.000  0.000  0.226  0.001  0.000  0.000  0.000  0.000  0.000  0.226
    5  0.000  0.125  0.226  0.000  0.000  0.000  0.000  0.000  0.000  0.350
tot    0.000  0.249  0.452  0.001  0.000  0.000  0.000  0.000  0.000  0.702
 
band    14 # energy    3.00456747 # occ.  2.00000000
 
ion      s     py     pz     px    dxy    dyz    dz2    dxz  x2-y2    tot
    1  0.000  0.001  0.000  0.011  0.000  0.000  0.000  0.000  0.000  0.012
    2  0.000  0.006  0.001  0.043  0.000  0.000  0.000  0.000  0.000  0.050
    3  0.000  0.024  0.008  0.170  0.000  0.000  0.000  0.000  0.000  0.202
    4  0.000  0.045  0.004  0.170  0.000  0.000  0.000  0.000  0.000  0.219
    5  0.000  0.024  0.004  0.323  0.000  0.000  0.000  0.000  0.000  0.352
tot    0.000  0.100  0.019  0.716  0.000  0.000  0.000  0.000  0.000  0.835
 
band    15 # energy    3.00456751 # occ.  2.00000000
 
ion      s     py     pz     px    dxy    dyz    dz2    dxz  x2-y2    tot
    1  0.000  0.008  0.003  0.001  0.000  0.000  0.000  0.000  0.000  0.012
    2  0.000  0.032  0.013  0.005  0.000  0.000  0.000  0.000  0.000  0.050
    3  0.000  0.129  0.096  0.019  0.000  0.000  0.000  0.000  0.000  0.243
    4  0.000  0.246  0.050  0.019  0.000  0.000  0.000  0.000  0.000  0.315
    5  0.000  0.129  0.050  0.036  0.000  0.000  0.000  0.000  0.000  0.215
tot    0.000  0.544  0.212  0.079  0.000  0.000  0.000  0.000  0.000  0.835
 
band    16 # energy    3.00456752 # occ.  2.00000000
 
ion      s     py     pz     px    dxy    dyz    dz2    dxz  x2-y2    tot
    1  0.000  0.003  0.009  0.001  0.000  0.000  0.000  0.000  0.000  0.012
    2  0.000  0.011  0.036  0.002  0.000  0.000  0.000  0.000  0.000  0.050
    3  0.000  0.045  0.273  0.009  0.000  0.000  0.000  0.000  0.000  0.328
    4  0.000  0.086  0.143  0.009  0.000  0.000  0.000  0.000  0.000  0.239
    5  0.000  0.045  0.143  0.018  0.000  0.000  0.000  0.000  0.000  0.206
tot    0.000  0.191  0.604  0.040  0.000  0.000  0.000  0.000  0.000  0.835
 
band    17 # energy    4.29088310 # occ.  1.97276619
 
ion      s     py     pz     px    dxy    dyz    dz2    dxz  x2-y2    tot
    1  0.000  0.000  0.000  0.000  0.014  0.000  0.000  0.000  0.000  0.014
    2  0.000  0.000  0.000  0.000  0.894  0.000  0.000  0.000  0.000  0.894
    3  0.000  0.000  0.000  0.000  0.000  0.000  0.000  0.000  0.000  0.000
    4  0.000  0.000  0.000  0.000  0.000  0.000  0.000  0.000  0.000  0.000
    5  0.000  0.000  0.000  0.000  0.000  0.000  0.000  0.000  0.000  0.000
tot    0.000  0.000  0.000  0.000  0.908  0.000  0.000  0.000  0.000  0.908
 
band    18 # energy    4.29088332 # occ.  1.97276562
 
ion      s     py     pz     px    dxy    dyz    dz2    dxz  x2-y2    tot
    1  0.000  0.000  0.000  0.000  0.000  0.013  0.000  0.001  0.000  0.014
    2  0.000  0.000  0.000  0.000  0.000  0.807  0.000  0.087  0.000  0.894
    3  0.000  0.000  0.000  0.000  0.000  0.000  0.000  0.000  0.000  0.000
    4  0.000  0.000  0.000  0.000  0.000  0.000  0.000  0.000  0.000  0.000
    5  0.000  0.000  0.000  0.000  0.000  0.000  0.000  0.000  0.000  0.000
tot    0.000  0.000  0.000  0.000  0.000  0.820  0.000  0.088  0.000  0.908
 
band    19 # energy    4.29088332 # occ.  1.97276561
 
ion      s     py     pz     px    dxy    dyz    dz2    dxz  x2-y2    tot
    1  0.000  0.000  0.000  0.000  0.000  0.001  0.000  0.013  0.000  0.014
    2  0.000  0.000  0.000  0.000  0.000  0.087  0.000  0.807  0.000  0.894
    3  0.000  0.000  0.000  0.000  0.000  0.000  0.000  0.000  0.000  0.000
    4  0.000  0.000  0.000  0.000  0.000  0.000  0.000  0.000  0.000  0.000
    5  0.000  0.000  0.000  0.000  0.000  0.000  0.000  0.000  0.000  0.000
tot    0.000  0.000  0.000  0.000  0.000  0.088  0.000  0.820  0.000  0.908
 
band    20 # energy    6.46771835 # occ. -0.00000000
 
ion      s     py     pz     px    dxy    dyz    dz2    dxz  x2-y2    tot
    1  0.000  0.000  0.000  0.000  0.000  0.000  0.004  0.000  0.000  0.004
    2  0.000  0.000  0.000  0.000  0.000  0.000  0.924  0.000  0.000  0.924
    3  0.029  0.000  0.000  0.000  0.000  0.000  0.000  0.000  0.000  0.029
    4  0.007  0.000  0.000  0.000  0.000  0.000  0.000  0.000  0.000  0.007
    5  0.007  0.000  0.000  0.000  0.000  0.000  0.000  0.000  0.000  0.007
tot    0.043  0.000  0.000  0.000  0.000  0.000  0.928  0.000  0.000  0.971
 
band    21 # energy    6.46771861 # occ. -0.00000000
 
ion      s     py     pz     px    dxy    dyz    dz2    dxz  x2-y2    tot
    1  0.000  0.000  0.000  0.000  0.000  0.000  0.000  0.000  0.004  0.004
    2  0.000  0.000  0.000  0.000  0.000  0.000  0.000  0.000  0.924  0.924
    3  0.000  0.000  0.000  0.000  0.000  0.000  0.000  0.000  0.000  0.000
    4  0.021  0.000  0.000  0.000  0.000  0.000  0.000  0.000  0.000  0.021
    5  0.022  0.000  0.000  0.000  0.000  0.000  0.000  0.000  0.000  0.022
tot    0.043  0.000  0.000  0.000  0.000  0.000  0.000  0.000  0.928  0.971
 
band    22 # energy    8.83161044 # occ. -0.00000000
 
ion      s     py     pz     px    dxy    dyz    dz2    dxz  x2-y2    tot
    1  0.000  0.000  0.000  0.000  0.000  0.000  0.184  0.000  0.254  0.438
    2  0.000  0.000  0.000  0.000  0.000  0.000  0.001  0.000  0.001  0.002
    3  0.010  0.000  0.000  0.000  0.000  0.000  0.000  0.000  0.000  0.010
    4  0.018  0.000  0.000  0.000  0.000  0.000  0.000  0.000  0.000  0.018
    5  0.007  0.000  0.000  0.000  0.000  0.000  0.000  0.000  0.000  0.007
tot    0.035  0.000  0.000  0.000  0.000  0.000  0.185  0.000  0.255  0.475
 
band    23 # energy    8.83161044 # occ. -0.00000000
 
ion      s     py     pz     px    dxy    dyz    dz2    dxz  x2-y2    tot
    1  0.000  0.000  0.000  0.000  0.000  0.000  0.254  0.000  0.184  0.438
    2  0.000  0.000  0.000  0.000  0.000  0.000  0.001  0.000  0.001  0.002
    3  0.013  0.000  0.000  0.000  0.000  0.000  0.000  0.000  0.000  0.013
    4  0.006  0.000  0.000  0.000  0.000  0.000  0.000  0.000  0.000  0.006
    5  0.016  0.000  0.000  0.000  0.000  0.000  0.000  0.000  0.000  0.016
tot    0.035  0.000  0.000  0.000  0.000  0.000  0.255  0.000  0.185  0.475
 
band    24 # energy    9.92657009 # occ.  0.00000000
 
ion      s     py     pz     px    dxy    dyz    dz2    dxz  x2-y2    tot
    1  0.208  0.000  0.000  0.000  0.000  0.000  0.000  0.000  0.000  0.208
    2  0.022  0.000  0.000  0.000  0.000  0.000  0.000  0.000  0.000  0.022
    3  0.059  0.000  0.000  0.000  0.000  0.000  0.000  0.000  0.000  0.059
    4  0.059  0.000  0.000  0.000  0.000  0.000  0.000  0.000  0.000  0.059
    5  0.059  0.000  0.000  0.000  0.000  0.000  0.000  0.000  0.000  0.059
tot    0.406  0.000  0.000  0.000  0.000  0.000  0.000  0.000  0.000  0.406
 
band    25 # energy   11.86237068 # occ.  0.00000000
 
ion      s     py     pz     px    dxy    dyz    dz2    dxz  x2-y2    tot
    1  0.000  0.000  0.000  0.000  0.606  0.012  0.000  0.002  0.000  0.620
    2  0.000  0.000  0.000  0.000  0.080  0.002  0.000  0.000  0.000  0.082
    3  0.000  0.000  0.000  0.000  0.000  0.000  0.000  0.000  0.000  0.000
    4  0.000  0.000  0.000  0.000  0.000  0.000  0.000  0.000  0.000  0.000
    5  0.000  0.000  0.000  0.000  0.000  0.000  0.000  0.000  0.000  0.000
tot    0.000  0.000  0.000  0.000  0.686  0.014  0.000  0.002  0.000  0.702
 
band    26 # energy   11.86237069 # occ.  0.00000000
 
ion      s     py     pz     px    dxy    dyz    dz2    dxz  x2-y2    tot
    1  0.000  0.000  0.000  0.000  0.000  0.082  0.000  0.538  0.000  0.620
    2  0.000  0.000  0.000  0.000  0.000  0.011  0.000  0.071  0.000  0.082
    3  0.000  0.000  0.000  0.000  0.000  0.000  0.000  0.000  0.000  0.000
    4  0.000  0.000  0.000  0.000  0.000  0.000  0.000  0.000  0.000  0.000
    5  0.000  0.000  0.000  0.000  0.000  0.000  0.000  0.000  0.000  0.000
tot    0.000  0.000  0.000  0.000  0.000  0.093  0.000  0.609  0.000  0.702
 
band    27 # energy   11.86237070 # occ.  0.00000000
 
ion      s     py     pz     px    dxy    dyz    dz2    dxz  x2-y2    tot
    1  0.000  0.000  0.000  0.000  0.014  0.526  0.000  0.081  0.000  0.620
    2  0.000  0.000  0.000  0.000  0.002  0.069  0.000  0.011  0.000  0.082
    3  0.000  0.000  0.000  0.000  0.000  0.000  0.000  0.000  0.000  0.000
    4  0.000  0.000  0.000  0.000  0.000  0.000  0.000  0.000  0.000  0.000
    5  0.000  0.000  0.000  0.000  0.000  0.000  0.000  0.000  0.000  0.000
tot    0.000  0.000  0.000  0.000  0.016  0.595  0.000  0.091  0.000  0.702
 
band    28 # energy   18.46379373 # occ.  0.00000000
 
ion      s     py     pz     px    dxy    dyz    dz2    dxz  x2-y2    tot
    1  0.051  0.000  0.000  0.000  0.000  0.000  0.000  0.000  0.000  0.051
    2  0.693  0.000  0.000  0.000  0.000  0.000  0.000  0.000  0.000  0.693
    3  0.022  0.000  0.000  0.000  0.000  0.000  0.000  0.000  0.000  0.022
    4  0.022  0.000  0.000  0.000  0.000  0.000  0.000  0.000  0.000  0.022
    5  0.022  0.000  0.000  0.000  0.000  0.000  0.000  0.000  0.000  0.022
tot    0.812  0.000  0.000  0.000  0.000  0.000  0.000  0.000  0.000  0.812
 
band    29 # energy   20.81435878 # occ.  0.00000000
 
ion      s     py     pz     px    dxy    dyz    dz2    dxz  x2-y2    tot
    1  0.000  0.039  0.068  0.089  0.000  0.000  0.000  0.000  0.000  0.196
    2  0.000  0.020  0.034  0.045  0.000  0.000  0.000  0.000  0.000  0.100
    3  0.000  0.024  0.036  0.054  0.000  0.000  0.000  0.000  0.000  0.114
    4  0.000  0.021  0.041  0.054  0.000  0.000  0.000  0.000  0.000  0.116
    5  0.000  0.024  0.041  0.047  0.000  0.000  0.000  0.000  0.000  0.112
tot    0.000  0.128  0.220  0.289  0.000  0.000  0.000  0.000  0.000  0.637
 
band    30 # energy   20.81435879 # occ.  0.00000000
 
ion      s     py     pz     px    dxy    dyz    dz2    dxz  x2-y2    tot
    1  0.000  0.151  0.037  0.009  0.000  0.000  0.000  0.000  0.000  0.196
    2  0.000  0.077  0.019  0.004  0.000  0.000  0.000  0.000  0.000  0.100
    3  0.000  0.092  0.019  0.005  0.000  0.000  0.000  0.000  0.000  0.116
    4  0.000  0.080  0.022  0.005  0.000  0.000  0.000  0.000  0.000  0.107
    5  0.000  0.092  0.022  0.005  0.000  0.000  0.000  0.000  0.000  0.118
tot    0.000  0.491  0.119  0.028  0.000  0.000  0.000  0.000  0.000  0.637
 
band    31 # energy   20.81435975 # occ.  0.00000000
 
ion      s     py     pz     px    dxy    dyz    dz2    dxz  x2-y2    tot
    1  0.000  0.006  0.092  0.098  0.000  0.000  0.000  0.000  0.000  0.196
    2  0.000  0.003  0.047  0.050  0.000  0.000  0.000  0.000  0.000  0.100
    3  0.000  0.004  0.048  0.060  0.000  0.000  0.000  0.000  0.000  0.112
    4  0.000  0.003  0.056  0.060  0.000  0.000  0.000  0.000  0.000  0.119
    5  0.000  0.004  0.056  0.052  0.000  0.000  0.000  0.000  0.000  0.111
tot    0.000  0.019  0.298  0.320  0.000  0.000  0.000  0.000  0.000  0.637
 
band    32 # energy   24.55287314 # occ.  0.00000000
 
ion      s     py     pz     px    dxy    dyz    dz2    dxz  x2-y2    tot
    1  0.000  0.000  0.000  0.000  0.015  0.022  0.000  0.085  0.000  0.122
    2  0.000  0.000  0.000  0.000  0.087  0.127  0.000  0.501  0.000  0.714
    3  0.000  0.000  0.000  0.000  0.000  0.000  0.000  0.000  0.000  0.000
    4  0.000  0.000  0.000  0.000  0.000  0.000  0.000  0.000  0.000  0.000
    5  0.000  0.000  0.000  0.000  0.000  0.000  0.000  0.000  0.000  0.000
tot    0.000  0.000  0.000  0.000  0.102  0.149  0.000  0.586  0.000  0.836
 
band    33 # energy   24.55287319 # occ.  0.00000000
 
ion      s     py     pz     px    dxy    dyz    dz2    dxz  x2-y2    tot
    1  0.000  0.000  0.000  0.000  0.016  0.094  0.000  0.011  0.000  0.122
    2  0.000  0.000  0.000  0.000  0.095  0.554  0.000  0.066  0.000  0.714
    3  0.000  0.000  0.000  0.000  0.000  0.000  0.000  0.000  0.000  0.000
    4  0.000  0.000  0.000  0.000  0.000  0.000  0.000  0.000  0.000  0.000
    5  0.000  0.000  0.000  0.000  0.000  0.000  0.000  0.000  0.000  0.000
tot    0.000  0.000  0.000  0.000  0.111  0.649  0.000  0.077  0.000  0.836
 
band    34 # energy   24.55287534 # occ.  0.00000000
 
ion      s     py     pz     px    dxy    dyz    dz2    dxz  x2-y2    tot
    1  0.000  0.000  0.000  0.000  0.091  0.006  0.000  0.025  0.000  0.122
    2  0.000  0.000  0.000  0.000  0.533  0.033  0.000  0.148  0.000  0.714
    3  0.000  0.000  0.000  0.000  0.000  0.000  0.000  0.000  0.000  0.000
    4  0.000  0.000  0.000  0.000  0.000  0.000  0.000  0.000  0.000  0.000
    5  0.000  0.000  0.000  0.000  0.000  0.000  0.000  0.000  0.000  0.000
tot    0.000  0.000  0.000  0.000  0.624  0.039  0.000  0.173  0.000  0.836
 
band    35 # energy   25.00324047 # occ.  0.00000000
 
ion      s     py     pz     px    dxy    dyz    dz2    dxz  x2-y2    tot
    1  0.000  0.000  0.000  0.000  0.000  0.000  0.438  0.000  0.064  0.502
    2  0.000  0.000  0.000  0.000  0.000  0.000  0.021  0.000  0.003  0.024
    3  0.006  0.000  0.000  0.000  0.000  0.000  0.000  0.000  0.000  0.006
    4  0.001  0.000  0.000  0.000  0.000  0.000  0.000  0.000  0.000  0.001
    5  0.003  0.000  0.000  0.000  0.000  0.000  0.000  0.000  0.000  0.003
tot    0.010  0.000  0.000  0.000  0.000  0.000  0.459  0.000  0.067  0.536
 
band    36 # energy   25.00323929 # occ.  0.00000000
 
ion      s     py     pz     px    dxy    dyz    dz2    dxz  x2-y2    tot
    1  0.000  0.000  0.000  0.000  0.000  0.000  0.064  0.000  0.438  0.502
    2  0.000  0.000  0.000  0.000  0.000  0.000  0.003  0.000  0.021  0.024
    3  0.001  0.000  0.000  0.000  0.000  0.000  0.000  0.000  0.000  0.001
    4  0.005  0.000  0.000  0.000  0.000  0.000  0.000  0.000  0.000  0.005
    5  0.004  0.000  0.000  0.000  0.000  0.000  0.000  0.000  0.000  0.004
tot    0.010  0.000  0.000  0.000  0.000  0.000  0.067  0.000  0.459  0.536
 
band    37 # energy   25.42970733 # occ.  0.00000000
 
ion      s     py     pz     px    dxy    dyz    dz2    dxz  x2-y2    tot
    1  0.000  0.000  0.000  0.000  0.000  0.000  0.000  0.000  0.000  0.000
    2  0.000  0.000  0.000  0.000  0.000  0.000  0.000  0.000  0.000  0.000
    3  0.000  0.000  0.000  0.000  0.000  0.000  0.000  0.000  0.000  0.000
    4  0.000  0.000  0.000  0.000  0.000  0.000  0.000  0.000  0.000  0.000
    5  0.000  0.000  0.000  0.000  0.000  0.000  0.000  0.000  0.000  0.000
tot    0.000  0.000  0.000  0.000  0.000  0.000  0.000  0.000  0.000  0.000
 
band    38 # energy   26.75393862 # occ.  0.00000000
 
ion      s     py     pz     px    dxy    dyz    dz2    dxz  x2-y2    tot
    1  0.000  0.000  0.000  0.000  0.000  0.000  0.000  0.000  0.000  0.000
    2  0.000  0.000  0.000  0.000  0.000  0.000  0.000  0.000  0.000  0.000
    3  0.000  0.077  0.000  0.019  0.000  0.000  0.000  0.000  0.000  0.096
    4  0.000  0.000  0.021  0.019  0.000  0.000  0.000  0.000  0.000  0.040
    5  0.000  0.077  0.021  0.000  0.000  0.000  0.000  0.000  0.000  0.097
tot    0.000  0.154  0.041  0.038  0.000  0.000  0.000  0.000  0.000  0.233
 
band    39 # energy   26.75393876 # occ.  0.00000000
 
ion      s     py     pz     px    dxy    dyz    dz2    dxz  x2-y2    tot
    1  0.000  0.000  0.000  0.000  0.000  0.000  0.000  0.000  0.000  0.000
    2  0.000  0.000  0.000  0.000  0.000  0.000  0.000  0.000  0.000  0.000
    3  0.000  0.004  0.000  0.085  0.000  0.000  0.000  0.000  0.000  0.089
    4  0.000  0.000  0.028  0.085  0.000  0.000  0.000  0.000  0.000  0.113
    5  0.000  0.004  0.028  0.000  0.000  0.000  0.000  0.000  0.000  0.032
tot    0.000  0.008  0.055  0.170  0.000  0.000  0.000  0.000  0.000  0.233
 
band    40 # energy   26.75394472 # occ.  0.00000000
 
ion      s     py     pz     px    dxy    dyz    dz2    dxz  x2-y2    tot
    1  0.000  0.000  0.000  0.000  0.000  0.000  0.000  0.000  0.000  0.000
    2  0.000  0.000  0.000  0.000  0.000  0.000  0.000  0.000  0.000  0.000
    3  0.000  0.036  0.000  0.013  0.000  0.000  0.000  0.000  0.000  0.048
    4  0.000  0.000  0.068  0.013  0.000  0.000  0.000  0.000  0.000  0.081
    5  0.000  0.036  0.068  0.000  0.000  0.000  0.000  0.000  0.000  0.104
tot    0.000  0.071  0.137  0.025  0.000  0.000  0.000  0.000  0.000  0.233
 
band    41 # energy   30.43714349 # occ.  0.00000000
 
ion      s     py     pz     px    dxy    dyz    dz2    dxz  x2-y2    tot
    1  0.000  0.022  0.429  0.264  0.000  0.000  0.000  0.000  0.000  0.716
    2  0.000  0.004  0.079  0.049  0.000  0.000  0.000  0.000  0.000  0.132
    3  0.000  0.000  0.037  0.000  0.000  0.000  0.000  0.000  0.000  0.038
    4  0.000  0.002  0.001  0.000  0.000  0.000  0.000  0.000  0.000  0.003
    5  0.000  0.000  0.001  0.023  0.000  0.000  0.000  0.000  0.000  0.024
tot    0.000  0.029  0.547  0.337  0.000  0.000  0.000  0.000  0.000  0.912
 
band    42 # energy   30.43714361 # occ.  0.00000000
 
ion      s     py     pz     px    dxy    dyz    dz2    dxz  x2-y2    tot
    1  0.000  0.438  0.058  0.220  0.000  0.000  0.000  0.000  0.000  0.716
    2  0.000  0.081  0.011  0.041  0.000  0.000  0.000  0.000  0.000  0.132
    3  0.000  0.001  0.005  0.000  0.000  0.000  0.000  0.000  0.000  0.006
    4  0.000  0.038  0.000  0.000  0.000  0.000  0.000  0.000  0.000  0.038
    5  0.000  0.001  0.000  0.019  0.000  0.000  0.000  0.000  0.000  0.020
tot    0.000  0.558  0.074  0.280  0.000  0.000  0.000  0.000  0.000  0.912
 
band    43 # energy   34.31286604 # occ.  0.00000000
 
ion      s     py     pz     px    dxy    dyz    dz2    dxz  x2-y2    tot
    1  0.007  0.019  0.013  0.019  0.165  0.006  0.000  0.021  0.000  0.251
    2  0.000  0.040  0.002  0.052  0.001  0.000  0.003  0.000  0.001  0.101
    3  0.002  0.000  0.000  0.001  0.000  0.000  0.000  0.000  0.000  0.003
    4  0.000  0.008  0.000  0.001  0.000  0.000  0.000  0.000  0.000  0.009
    5  0.003  0.000  0.000  0.010  0.000  0.000  0.000  0.000  0.000  0.013
tot    0.012  0.068  0.016  0.082  0.166  0.006  0.003  0.021  0.002  0.377
 
band    44 # energy   41.03418913 # occ.  0.00000000
 
ion      s     py     pz     px    dxy    dyz    dz2    dxz  x2-y2    tot
    1  0.001  0.000  0.000  0.000  0.000  0.000  0.019  0.000  0.031  0.053
    2  0.000  0.000  0.000  0.000  0.000  0.000  0.596  0.000  0.947  1.544
    3  0.011  0.000  0.000  0.000  0.000  0.000  0.000  0.000  0.000  0.011
    4  0.024  0.000  0.000  0.000  0.000  0.000  0.000  0.000  0.000  0.024
    5  0.008  0.000  0.000  0.000  0.000  0.000  0.000  0.000  0.000  0.008
tot    0.045  0.000  0.000  0.001  0.000  0.000  0.615  0.000  0.979  1.640
 
band    45 # energy   54.37645961 # occ.  0.00000000
 
ion      s     py     pz     px    dxy    dyz    dz2    dxz  x2-y2    tot
    1  0.000  0.000  0.000  0.000  0.036  0.056  0.000  0.010  0.000  0.103
    2  0.000  0.000  0.000  0.000  0.523  0.818  0.005  0.146  0.003  1.495
    3  0.000  0.000  0.000  0.000  0.000  0.000  0.000  0.000  0.000  0.000
    4  0.000  0.000  0.000  0.000  0.000  0.000  0.000  0.000  0.000  0.000
    5  0.000  0.000  0.000  0.000  0.000  0.000  0.000  0.000  0.000  0.000
tot    0.000  0.000  0.000  0.000  0.559  0.874  0.005  0.156  0.003  1.598
 
band    46 # energy   54.60643790 # occ.  0.00000000
 
ion      s     py     pz     px    dxy    dyz    dz2    dxz  x2-y2    tot
    1  0.001  0.000  0.000  0.000  0.008  0.007  0.000  0.086  0.000  0.102
    2  0.000  0.000  0.000  0.000  0.128  0.099  0.000  1.301  0.000  1.529
    3  0.000  0.000  0.000  0.000  0.000  0.000  0.000  0.000  0.000  0.000
    4  0.000  0.000  0.000  0.000  0.000  0.000  0.000  0.000  0.000  0.000
    5  0.000  0.000  0.000  0.000  0.000  0.000  0.000  0.000  0.000  0.000
tot    0.001  0.000  0.000  0.000  0.137  0.106  0.000  1.387  0.000  1.632
 

 k-point     2 :    0.02631579 0.00000000 0.00000000     weight = 0.01250000

band     1 # energy  -29.05644385 # occ.  2.00000000
 
ion      s     py     pz     px    dxy    dyz    dz2    dxz  x2-y2    tot
    1  0.972  0.000  0.000  0.000  0.000  0.000  0.000  0.000  0.000  0.972
    2  0.000  0.000  0.000  0.000  0.000  0.000  0.000  0.000  0.000  0.000
    3  0.000  0.000  0.000  0.000  0.000  0.000  0.000  0.000  0.000  0.000
    4  0.000  0.000  0.000  0.000  0.000  0.000  0.000  0.000  0.000  0.000
    5  0.000  0.000  0.000  0.000  0.000  0.000  0.000  0.000  0.000  0.000
tot    0.974  0.000  0.000  0.000  0.000  0.000  0.000  0.000  0.000  0.974
 
band     2 # energy  -14.29345558 # occ.  2.00000000
 
ion      s     py     pz     px    dxy    dyz    dz2    dxz  x2-y2    tot
    1  0.011  0.000  0.000  0.001  0.000  0.000  0.000  0.000  0.000  0.012
    2  0.138  0.000  0.000  0.000  0.000  0.000  0.000  0.000  0.000  0.138
    3  0.235  0.000  0.000  0.000  0.000  0.000  0.000  0.000  0.000  0.235
    4  0.235  0.000  0.000  0.000  0.000  0.000  0.000  0.000  0.000  0.235
    5  0.232  0.000  0.000  0.000  0.000  0.000  0.000  0.000  0.000  0.232
tot    0.851  0.000  0.000  0.001  0.000  0.000  0.000  0.000  0.000  0.852
 
band     3 # energy  -13.08205355 # occ.  2.00000000
 
ion      s     py     pz     px    dxy    dyz    dz2    dxz  x2-y2    tot
    1  0.000  0.000  0.000  0.001  0.000  0.000  0.001  0.000  0.002  0.004
    2  0.000  0.000  0.000  0.000  0.000  0.000  0.034  0.000  0.102  0.136
    3  0.128  0.000  0.000  0.000  0.000  0.000  0.000  0.000  0.000  0.128
    4  0.128  0.000  0.000  0.000  0.000  0.000  0.000  0.000  0.000  0.128
    5  0.521  0.000  0.000  0.000  0.000  0.000  0.000  0.000  0.000  0.521
tot    0.777  0.000  0.000  0.002  0.000  0.000  0.035  0.000  0.104  0.917
 
band     4 # energy  -13.07971069 # occ.  2.00000000
 
ion      s     py     pz     px    dxy    dyz    dz2    dxz  x2-y2    tot
    1  0.000  0.000  0.000  0.000  0.000  0.000  0.002  0.000  0.001  0.002
    2  0.000  0.000  0.000  0.000  0.000  0.000  0.103  0.000  0.034  0.137
    3  0.389  0.000  0.000  0.000  0.000  0.000  0.000  0.000  0.000  0.389
    4  0.389  0.000  0.000  0.000  0.000  0.000  0.000  0.000  0.000  0.389
    5  0.000  0.000  0.000  0.000  0.000  0.000  0.000  0.000  0.000  0.000
tot    0.778  0.000  0.000  0.000  0.000  0.000  0.104  0.000  0.035  0.917
 
band     5 # energy  -11.09066334 # occ.  2.00000000
 
ion      s     py     pz     px    dxy    dyz    dz2    dxz  x2-y2    tot
    1  0.000  0.678  0.261  0.000  0.000  0.000  0.000  0.000  0.000  0.939
    2  0.000  0.002  0.001  0.000  0.000  0.000  0.000  0.000  0.000  0.002
    3  0.000  0.002  0.000  0.000  0.000  0.000  0.000  0.000  0.000  0.002