 vasp.5.4.4.18Apr17-6-g9f103f2a35 (build Oct 03 2017 00:45:05) complex          
  
 executed on             LinuxIFC date 2018.08.22  23:27:35
 running on    1 total cores
 distrk:  each k-point on    1 cores,    1 groups
 distr:  one band on NCORES_PER_BAND=   1 cores,    1 groups


--------------------------------------------------------------------------------------------------------


 INCAR:
 POTCAR:    PAW Sr_sv 10Feb1998                   
 POTCAR:    PAW V 07Aug2001                       
 POTCAR:    PAW O 22Mar2012                       
 POTCAR:    PAW Sr_sv 10Feb1998                   
   VRHFIN =Sr: 3s3p4s                                                           
   LEXCH  = CA                                                                  
   EATOM  =   845.5689 eV,   62.1476 Ry                                         
                                                                                
   TITEL  = PAW Sr_sv 10Feb1998                                                 
   LULTRA =        F    use ultrasoft PP ?                                      
   IUNSCR =        1    unscreen: 0-lin 1-nonlin 2-no                           
   RPACOR =    2.200    partial core radius                                     
   POMASS =   87.620; ZVAL   =   10.000    mass and valenz                      
   RCORE  =    2.500    outmost cutoff radius                                   
   RWIGS  =    4.040; RWIGS  =    2.138    wigner-seitz radius (au A)           
   ENMAX  =  226.327; ENMIN  =  169.745 eV                                      
   RCLOC  =    2.201    cutoff for local pot                                    
   LCOR   =        T    correct aug charges                                     
   LPAW   =        T    paw PP                                                  
   EAUG   =  366.804                                                            
   DEXC   =    0.000                                                            
   RMAX   =    2.547    core radius for proj-oper                               
   RAUG   =    1.300    factor for augmentation sphere                          
   RDEP   =    2.562    radius for radial grids                                 
   RDEPT  =    2.145    core radius for aug-charge                              
                                                                                
   Atomic configuration                                                         
   10 entries                                                                   
     n  l   j            E        occ.                                          
     1  0  0.50    -15851.8828   2.0000                                         
     2  0  0.50     -2148.9480   2.0000                                         
     2  1  1.50     -1912.9353   6.0000                                         
     3  0  0.50      -331.8462   2.0000                                         
     3  1  1.50      -255.3856   6.0000                                         
     3  2  2.50      -128.2784  10.0000                                         
     4  0  0.50       -40.8303   2.0000                                         
     5  0  0.50        -3.6422   1.9990                                         
     4  1  1.50       -22.8493   6.0000                                         
     4  2  1.50        -1.4198   0.0010                                         
   Description                                                                  
     l       E           TYP  RCUT    TYP  RCUT                                 
     0    -40.8303494     23  2.500                                             
     0     -3.6421860     23  2.500                                             
     1    -22.8492718     23  2.500                                             
     1    -24.2098544     23  2.500                                             
     2     -1.4197899     23  2.500                                             
     2      0.0045700     23  2.500                                             
  local pseudopotential read in
  partial core-charges read in
  partial kinetic energy density read in
  atomic valenz-charges read in
  non local Contribution for L=           0  read in
    real space projection operators read in
  non local Contribution for L=           0  read in
    real space projection operators read in
  non local Contribution for L=           1  read in
    real space projection operators read in
  non local Contribution for L=           1  read in
    real space projection operators read in
  non local Contribution for L=           2  read in
    real space projection operators read in
  non local Contribution for L=           2  read in
    real space projection operators read in
    PAW grid and wavefunctions read in
 
   number of l-projection  operators is LMAX  =           6
   number of lm-projection operators is LMMAX =          18
 
 POTCAR:    PAW V 07Aug2001                       
   VRHFIN =V: d4 s1                                                             
   LEXCH  = CA                                                                  
   EATOM  =   172.4520 eV,   12.6749 Ry                                         
                                                                                
   TITEL  = PAW V 07Aug2001                                                     
   LULTRA =        F    use ultrasoft PP ?                                      
   IUNSCR =        1    unscreen: 0-lin 1-nonlin 2-no                           
   RPACOR =    2.000    partial core radius                                     
   POMASS =   50.941; ZVAL   =    5.000    mass and valenz                      
   RCORE  =    2.700    outmost cutoff radius                                   
   RWIGS  =    2.500; RWIGS  =    1.323    wigner-seitz radius (au A)           
   ENMAX  =  192.706; ENMIN  =  144.529 eV                                      
   RCLOC  =    1.779    cutoff for local pot                                    
   LCOR   =        T    correct aug charges                                     
   LPAW   =        T    paw PP                                                  
   EAUG   =  358.662                                                            
   DEXC   =    0.000                                                            
   RMAX   =    2.768    core radius for proj-oper                               
   RAUG   =    1.300    factor for augmentation sphere                          
   RDEP   =    2.762    radius for radial grids                                 
   RDEPT  =    2.240    core radius for aug-charge                              
                                                                                
   Atomic configuration                                                         
    9 entries                                                                   
     n  l   j            E        occ.                                          
     1  0  0.50     -5334.6266   2.0000                                         
     2  0  0.50      -595.8619   2.0000                                         
     2  1  1.50      -498.2253   6.0000                                         
     3  0  0.50       -66.0397   2.0000                                         
     3  1  1.50       -40.3979   6.0000                                         
     3  2  2.50        -2.6339   4.0000                                         
     4  0  0.50        -4.0392   1.0000                                         
     4  1  0.50        -4.0817   0.0000                                         
     4  3  2.50        -1.3606   0.0000                                         
   Description                                                                  
     l       E           TYP  RCUT    TYP  RCUT                                 
     2     -2.6338511     23  2.700                                             
     2     -3.9944337     23  2.700                                             
     0     -4.0392463     23  2.700                                             
     0     27.2116520     23  2.700                                             
     1     -4.0817478     23  2.700                                             
     1     27.2116520     23  2.700                                             
  local pseudopotential read in
  partial core-charges read in
  partial kinetic energy density read in
  atomic valenz-charges read in
  non local Contribution for L=           2  read in
    real space projection operators read in
  non local Contribution for L=           2  read in
    real space projection operators read in
  non local Contribution for L=           0  read in
    real space projection operators read in
  non local Contribution for L=           0  read in
    real space projection operators read in
  non local Contribution for L=           1  read in
    real space projection operators read in
  non local Contribution for L=           1  read in
    real space projection operators read in
    PAW grid and wavefunctions read in
 
   number of l-projection  operators is LMAX  =           6
   number of lm-projection operators is LMMAX =          18
 
 POTCAR:    PAW O 22Mar2012                       
   VRHFIN =O: s2p4                                                              
   LEXCH  = CA                                                                  
   EATOM  =   431.4380 eV,   31.7098 Ry                                         
                                                                                
   TITEL  = PAW O 22Mar2012                                                     
   LULTRA =        F    use ultrasoft PP ?                                      
   IUNSCR =        1    unscreen: 0-lin 1-nonlin 2-no                           
   RPACOR =    1.200    partial core radius                                     
   POMASS =   16.000; ZVAL   =    6.000    mass and valenz                      
   RCORE  =    1.520    outmost cutoff radius                                   
   RWIGS  =    1.550; RWIGS  =    0.820    wigner-seitz radius (au A)           
   ENMAX  =  400.000; ENMIN  =  300.000 eV                                      
   ICORE  =        2    local potential                                         
   LCOR   =        T    correct aug charges                                     
   LPAW   =        T    paw PP                                                  
   EAUG   =  605.392                                                            
   DEXC   =    0.000                                                            
   RMAX   =    1.553    core radius for proj-oper                               
   RAUG   =    1.300    factor for augmentation sphere                          
   RDEP   =    1.550    radius for radial grids                                 
   RDEPT  =    1.329    core radius for aug-charge                              
                                                                                
   Atomic configuration                                                         
    4 entries                                                                   
     n  l   j            E        occ.                                          
     1  0  0.50      -510.4605   2.0000                                         
     2  0  0.50       -23.7367   2.0000                                         
     2  1  0.50        -9.1995   4.0000                                         
     3  2  1.50        -9.5241   0.0000                                         
   Description                                                                  
     l       E           TYP  RCUT    TYP  RCUT                                 
     0    -23.7366993     23  1.200                                             
     0     -9.5240782     23  1.200                                             
     1     -9.1994509     23  1.520                                             
     1      8.1634956     23  1.520                                             
     2     -9.5240782      7  1.500                                             
  local pseudopotential read in
  partial core-charges read in
  partial kinetic energy density read in
  kinetic energy density of atom read in
  atomic valenz-charges read in
  non local Contribution for L=           0  read in
    real space projection operators read in
  non local Contribution for L=           0  read in
    real space projection operators read in
  non local Contribution for L=           1  read in
    real space projection operators read in
  non local Contribution for L=           1  read in
    real space projection operators read in
    PAW grid and wavefunctions read in
 
   number of l-projection  operators is LMAX  =           4
   number of lm-projection operators is LMMAX =           8
 

 ----------------------------------------------------------------------------- 
|                                                                             |
|  ADVICE TO THIS USER RUNNING 'VASP/VAMP'   (HEAR YOUR MASTER'S VOICE ...):  |
|                                                                             |
|      You enforced a specific xc-type in the INCAR file,                     |
|      a different type was found on the POTCAR file                          |
|          I HOPE YOU KNOW, WHAT YOU ARE  DOING                               |
|                                                                             |
 ----------------------------------------------------------------------------- 

  PAW Sr_sv 10Feb1998                   :
 energy of atom  1       EATOM= -845.5689
 kinetic energy error for atom=    0.0006 (will be added to EATOM!!)
  PAW V 07Aug2001                       :
 energy of atom  2       EATOM= -172.4520
 kinetic energy error for atom=    0.0002 (will be added to EATOM!!)
  PAW O 22Mar2012                       :
 energy of atom  3       EATOM= -431.4380
 kinetic energy error for atom=    0.0165 (will be added to EATOM!!)
 
 
 POSCAR: Sr V O                                  
  positions in direct lattice
  No initial velocities read in
 exchange correlation table for  LEXCH =       14
   RHO(1)=    0.500       N(1)  =     2000
   RHO(2)=  100.500       N(2)  =     4000
 


--------------------------------------------------------------------------------------------------------


 ion  position               nearest neighbor table
   1  0.000  0.000  0.000-   3 2.72   4 2.72   5 2.72   4 2.72   5 2.72   3 2.72   5 2.72   5 2.72
                             3 2.72   4 2.72   4 2.72   3 2.72   2 3.33   2 3.33   2 3.33   2 3.33
   2  0.500  0.500  0.500-   3 1.92   4 1.92   5 1.92   3 1.92   4 1.92   5 1.92   1 3.33   1 3.33
                             1 3.33   1 3.33   1 3.33   1 3.33   1 3.33   1 3.33
   3  0.500  0.500  0.000-   2 1.92   2 1.92   1 2.72   1 2.72   1 2.72   1 2.72
   4  0.500  0.000  0.500-   2 1.92   2 1.92   1 2.72   1 2.72   1 2.72   1 2.72
   5  0.000  0.500  0.500-   2 1.92   2 1.92   1 2.72   1 2.72   1 2.72   1 2.72
 
  LATTYP: Found a simple cubic cell.
 ALAT       =     3.8465200000
  
  Lattice vectors:
  
 A1 = (   3.8465200000,   0.0000000000,   0.0000000000)
 A2 = (   0.0000000000,   3.8465200000,   0.0000000000)
 A3 = (   0.0000000000,   0.0000000000,   3.8465200000)


Analysis of symmetry for initial positions (statically):
=====================================================================
 Subroutine PRICEL returns:
 Original cell was already a primitive cell.
 

 Routine SETGRP: Setting up the symmetry group for a 
 simple cubic supercell.


 Subroutine GETGRP returns: Found 48 space group operations
 (whereof 48 operations were pure point group operations)
 out of a pool of 48 trial point group operations.


The static configuration has the point symmetry O_h .


Analysis of symmetry for dynamics (positions and initial velocities):
=====================================================================
 Subroutine PRICEL returns:
 Original cell was already a primitive cell.
 

 Routine SETGRP: Setting up the symmetry group for a 
 simple cubic supercell.


 Subroutine GETGRP returns: Found 48 space group operations
 (whereof 48 operations were pure point group operations)
 out of a pool of 48 trial point group operations.


The dynamic configuration has the point symmetry O_h .


 Subroutine INISYM returns: Found 48 space group operations
 (whereof 48 operations are pure point group operations),
 and found     1 'primitive' translations

 
 
 KPOINTS: KPOINTS generated by PyProcar           
  interpolating k-points between supplied coordinates
  k-points in reciprocal lattice
Space group operators:
 irot       det(A)        alpha          n_x          n_y          n_z        tau_x        tau_y        tau_z
    1     1.000000     0.000000     1.000000     0.000000     0.000000     0.000000     0.000000     0.000000
    2    -1.000000     0.000000     1.000000     0.000000     0.000000     0.000000     0.000000     0.000000
    3     1.000000   120.000000    -0.577350    -0.577350    -0.577350     0.000000     0.000000     0.000000
    4    -1.000000   120.000000    -0.577350    -0.577350    -0.577350     0.000000     0.000000     0.000000
    5     1.000000   120.000000     0.577350     0.577350     0.577350     0.000000     0.000000     0.000000
    6    -1.000000   120.000000     0.577350     0.577350     0.577350     0.000000     0.000000     0.000000
    7     1.000000    90.000000     0.000000     0.000000    -1.000000     0.000000     0.000000     0.000000
    8    -1.000000    90.000000     0.000000     0.000000    -1.000000     0.000000     0.000000     0.000000
    9     1.000000   180.000000     0.000000     0.707107     0.707107     0.000000     0.000000     0.000000
   10    -1.000000   180.000000     0.000000     0.707107     0.707107     0.000000     0.000000     0.000000
   11     1.000000    90.000000     0.000000     1.000000     0.000000     0.000000     0.000000     0.000000
   12    -1.000000    90.000000     0.000000     1.000000     0.000000     0.000000     0.000000     0.000000
   13     1.000000   180.000000     0.000000     0.000000     1.000000     0.000000     0.000000     0.000000
   14    -1.000000   180.000000     0.000000     0.000000     1.000000     0.000000     0.000000     0.000000
   15     1.000000   120.000000    -0.577350     0.577350     0.577350     0.000000     0.000000     0.000000
   16    -1.000000   120.000000    -0.577350     0.577350     0.577350     0.000000     0.000000     0.000000
   17     1.000000   120.000000    -0.577350     0.577350    -0.577350     0.000000     0.000000     0.000000
   18    -1.000000   120.000000    -0.577350     0.577350    -0.577350     0.000000     0.000000     0.000000
   19     1.000000    90.000000     0.000000     0.000000     1.000000     0.000000     0.000000     0.000000
   20    -1.000000    90.000000     0.000000     0.000000     1.000000     0.000000     0.000000     0.000000
   21     1.000000    90.000000    -1.000000     0.000000     0.000000     0.000000     0.000000     0.000000
   22    -1.000000    90.000000    -1.000000     0.000000     0.000000     0.000000     0.000000     0.000000
   23     1.000000   180.000000     0.707107     0.000000     0.707107     0.000000     0.000000     0.000000
   24    -1.000000   180.000000     0.707107     0.000000     0.707107     0.000000     0.000000     0.000000
   25     1.000000   120.000000     0.577350    -0.577350     0.577350     0.000000     0.000000     0.000000
   26    -1.000000   120.000000     0.577350    -0.577350     0.577350     0.000000     0.000000     0.000000
   27     1.000000   120.000000    -0.577350    -0.577350     0.577350     0.000000     0.000000     0.000000
   28    -1.000000   120.000000    -0.577350    -0.577350     0.577350     0.000000     0.000000     0.000000
   29     1.000000   180.000000     1.000000     0.000000     0.000000     0.000000     0.000000     0.000000
   30    -1.000000   180.000000     1.000000     0.000000     0.000000     0.000000     0.000000     0.000000
   31     1.000000    90.000000     0.000000    -1.000000     0.000000     0.000000     0.000000     0.000000
   32    -1.000000    90.000000     0.000000    -1.000000     0.000000     0.000000     0.000000     0.000000
   33     1.000000   180.000000     0.707107     0.707107     0.000000     0.000000     0.000000     0.000000
   34    -1.000000   180.000000     0.707107     0.707107     0.000000     0.000000     0.000000     0.000000
   35     1.000000    90.000000     1.000000     0.000000     0.000000     0.000000     0.000000     0.000000
   36    -1.000000    90.000000     1.000000     0.000000     0.000000     0.000000     0.000000     0.000000
   37     1.000000   120.000000     0.577350    -0.577350    -0.577350     0.000000     0.000000     0.000000
   38    -1.000000   120.000000     0.577350    -0.577350    -0.577350     0.000000     0.000000     0.000000
   39     1.000000   180.000000     0.000000     1.000000     0.000000     0.000000     0.000000     0.000000
   40    -1.000000   180.000000     0.000000     1.000000     0.000000     0.000000     0.000000     0.000000
   41     1.000000   120.000000     0.577350     0.577350    -0.577350     0.000000     0.000000     0.000000
   42    -1.000000   120.000000     0.577350     0.577350    -0.577350     0.000000     0.000000     0.000000
   43     1.000000   180.000000     0.000000    -0.707107     0.707107     0.000000     0.000000     0.000000
   44    -1.000000   180.000000     0.000000    -0.707107     0.707107     0.000000     0.000000     0.000000
   45     1.000000   180.000000     0.707107    -0.707107     0.000000     0.000000     0.000000     0.000000
   46    -1.000000   180.000000     0.707107    -0.707107     0.000000     0.000000     0.000000     0.000000
   47     1.000000   180.000000     0.707107     0.000000    -0.707107     0.000000     0.000000     0.000000
   48    -1.000000   180.000000     0.707107     0.000000    -0.707107     0.000000     0.000000     0.000000


--------------------------------------------------------------------------------------------------------




 Dimension of arrays:
   k-points           NKPTS =    160   k-points in BZ     NKDIM =    160   number of bands    NBANDS=     46
   number of dos      NEDOS =    301   number of ions     NIONS =      5
   non local maximal  LDIM  =      6   non local SUM 2l+1 LMDIM =     18
   total plane-waves  NPLWV =  13824
   max r-space proj   IRMAX =      1   max aug-charges    IRDMAX= 118030
   dimension x,y,z NGX =    24 NGY =   24 NGZ =   24
   dimension x,y,z NGXF=    48 NGYF=   48 NGZF=   48
   support grid    NGXF=    96 NGYF=   96 NGZF=   96
   ions per type =               1   1   3
   NGX,Y,Z   is equivalent  to a cutoff of  10.37, 10.37, 10.37 a.u.
   NGXF,Y,Z  is equivalent  to a cutoff of  20.75, 20.75, 20.75 a.u.

 SYSTEM =  SrVO3 	                                 
 POSCAR =  Sr V O                                  

 Startparameter for this run:
   NWRITE =      2    write-flag & timer
   PREC   = normal    normal or accurate (medium, high low for compatibility)
   ISTART =      1    job   : 0-new  1-cont  2-samecut
   ICHARG =     11    charge: 1-file 2-atom 10-const
   ISPIN  =      1    spin polarized calculation?
   LNONCOLLINEAR =      F non collinear calculations
   LSORBIT =      F    spin-orbit coupling
   INIWAV =      1    electr: 0-lowe 1-rand  2-diag
   LASPH  =      F    aspherical Exc in radial PAW
   METAGGA=      F    non-selfconsistent MetaGGA calc.

 Electronic Relaxation 1
   ENCUT  =  600.0 eV  44.10 Ry    6.64 a.u.   7.68  7.68  7.68*2*pi/ulx,y,z
   ENINI  =  600.0     initial cutoff
   ENAUG  =  605.4 eV  augmentation charge cutoff
   NELM   =     20;   NELMIN=  2; NELMDL=  0     # of ELM steps 
   EDIFF  = 0.1E-03   stopping-criterion for ELM
   LREAL  =      F    real-space projection
   NLSPLINE    = F    spline interpolate recip. space projectors
   LCOMPAT=      F    compatible to vasp.4.4
   GGA_COMPAT  = T    GGA compatible to vasp.4.4-vasp.4.6
   LMAXPAW     = -100 max onsite density
   LMAXMIX     =    4 max onsite mixed and CHGCAR
   VOSKOWN=      0    Vosko Wilk Nusair interpolation
   ROPT   =    0.00000   0.00000   0.00000
 Ionic relaxation
   EDIFFG = 0.1E-02   stopping-criterion for IOM
   NSW    =      0    number of steps for IOM
   NBLOCK =      1;   KBLOCK =      1    inner block; outer block 
   IBRION =     -1    ionic relax: 0-MD 1-quasi-New 2-CG
   NFREE  =      0    steps in history (QN), initial steepest desc. (CG)
   ISIF   =      2    stress and relaxation
   IWAVPR =     10    prediction:  0-non 1-charg 2-wave 3-comb
   ISYM   =      2    0-nonsym 1-usesym 2-fastsym
   LCORR  =      T    Harris-Foulkes like correction to forces

   POTIM  = 0.5000    time-step for ionic-motion
   TEIN   =    0.0    initial temperature
   TEBEG  =    0.0;   TEEND  =   0.0 temperature during run
   SMASS  =  -3.00    Nose mass-parameter (am)
   estimated Nose-frequenzy (Omega)   =  0.10E-29 period in steps =****** mass=  -0.338E-27a.u.
   SCALEE = 1.0000    scale energy and forces
   NPACO  =    256;   APACO  = 16.0  distance and # of slots for P.C.
   PSTRESS=    0.0 pullay stress

  Mass of Ions in am
   POMASS =  87.62 50.94 16.00
  Ionic Valenz
   ZVAL   =  10.00  5.00  6.00
  Atomic Wigner-Seitz radii
   RWIGS  =  -1.00 -1.00 -1.00
  virtual crystal weights 
   VCA    =   1.00  1.00  1.00
   NELECT =      33.0000    total number of electrons
   NUPDOWN=      -1.0000    fix difference up-down

 DOS related values:
   EMIN   =  10.00;   EMAX   =-10.00  energy-range for DOS
   EFERMI =   0.00
   ISMEAR =     1;   SIGMA  =   0.20  broadening in eV -4-tet -1-fermi 0-gaus

 Electronic relaxation 2 (details)
   IALGO  =     38    algorithm
   LDIAG  =      T    sub-space diagonalisation (order eigenvalues)
   LSUBROT=      F    optimize rotation matrix (better conditioning)
   TURBO    =      0    0=normal 1=particle mesh
   IRESTART =      0    0=no restart 2=restart with 2 vectors
   NREBOOT  =      0    no. of reboots
   NMIN     =      0    reboot dimension
   EREF     =   0.00    reference energy to select bands
   IMIX   =      4    mixing-type and parameters
     AMIX     =   0.40;   BMIX     =  1.00
     AMIX_MAG =   1.60;   BMIX_MAG =  1.00
     AMIN     =   0.10
     WC   =   100.;   INIMIX=   1;  MIXPRE=   1;  MAXMIX= -45

 Intra band minimization:
   WEIMIN = 0.0000     energy-eigenvalue tresh-hold
   EBREAK =  0.54E-06  absolut break condition
   DEPER  =   0.30     relativ break condition  

   TIME   =   0.40     timestep for ELM

  volume/ion in A,a.u.               =      11.38        76.81
  Fermi-wavevector in a.u.,A,eV,Ry     =   1.365143  2.579746 25.356027  1.863615
  Thomas-Fermi vector in A             =   2.491397
 
 Write flags
   LWAVE        =      T    write WAVECAR
   LDOWNSAMPLE  =      F    k-point downsampling of WAVECAR
   LCHARG       =      T    write CHGCAR
   LVTOT        =      F    write LOCPOT, total local potential
   LVHAR        =      F    write LOCPOT, Hartree potential only
   LELF         =      F    write electronic localiz. function (ELF)
   LORBIT       =     11    0 simple, 1 ext, 2 COOP (PROOUT), +10 PAW based schemes


 Dipole corrections
   LMONO  =      F    monopole corrections only (constant potential shift)
   LDIPOL =      F    correct potential (dipole corrections)
   IDIPOL =      0    1-x, 2-y, 3-z, 4-all directions 
   EPSILON=  1.0000000 bulk dielectric constant

 Exchange correlation treatment:
   GGA     =    PS    GGA type
   LEXCH   =    14    internal setting for exchange type
   VOSKOWN=      0    Vosko Wilk Nusair interpolation
   LHFCALC =     F    Hartree Fock is set to
   LHFONE  =     F    Hartree Fock one center treatment
   AEXX    =    0.0000 exact exchange contribution

 Linear response parameters
   LEPSILON=     F    determine dielectric tensor
   LRPA    =     F    only Hartree local field effects (RPA)
   LNABLA  =     F    use nabla operator in PAW spheres
   LVEL    =     F    velocity operator in full k-point grid
   LINTERFAST=   F  fast interpolation
   KINTER  =     0    interpolate to denser k-point grid
   CSHIFT  =0.1000    complex shift for real part using Kramers Kronig
   OMEGAMAX=  -1.0    maximum frequency
   DEG_THRESHOLD= 0.2000000E-02 threshold for treating states as degnerate
   RTIME   =   -0.100 relaxation time in fs
  (WPLASMAI=    0.000 imaginary part of plasma frequency in eV, 0.658/RTIME)
   DFIELD  = 0.0000000 0.0000000 0.0000000 field for delta impulse in time
 
 Orbital magnetization related:
   ORBITALMAG=     F  switch on orbital magnetization
   LCHIMAG   =     F  perturbation theory with respect to B field
   DQ        =  0.001000  dq finite difference perturbation B field
   LLRAUG    =     F  two centre corrections for induced B field



--------------------------------------------------------------------------------------------------------


 Static calculation
 charge density and potential remain constant during run
 non-spin polarized calculation
 Variant of blocked Davidson
 Davidson routine will perform the subspace rotation
 perform sub-space diagonalisation
    after iterative eigenvector-optimisation
 no mixing
 using additional bands           29
 reciprocal scheme for non local part
 use partial core corrections
 calculate Harris-corrections to forces 
   (improved forces if not selfconsistent)
 use gradient corrections 
 WARNING: stress and forces are not correct
  (second derivative of E(xc) not defined)
 use of overlap-Matrix (Vanderbilt PP)
 Methfessel and Paxton  Order N= 1 SIGMA  =   0.20


--------------------------------------------------------------------------------------------------------


  energy-cutoff  :      600.00
  volume of cell :       56.91
      direct lattice vectors                 reciprocal lattice vectors
     3.846520000  0.000000000  0.000000000     0.259975250  0.000000000  0.000000000
     0.000000000  3.846520000  0.000000000     0.000000000  0.259975250  0.000000000
     0.000000000  0.000000000  3.846520000     0.000000000  0.000000000  0.259975250

  length of vectors
     3.846520000  3.846520000  3.846520000     0.259975250  0.259975250  0.259975250


 
 old parameters found on file WAVECAR:
  energy-cutoff  :      600.00
  volume of cell :       56.91
      direct lattice vectors                 reciprocal lattice vectors
     3.846520000  0.000000000  0.000000000     0.259975250  0.000000000  0.000000000
     0.000000000  3.846520000  0.000000000     0.000000000  0.259975250  0.000000000
     0.000000000  0.000000000  3.846520000     0.000000000  0.000000000  0.259975250

  length of vectors

 
 k-points in units of 2pi/SCALE and weight: KPOINTS generated by PyProcar           
   0.00000000  0.00000000  0.00000000       0.006
   0.01282051  0.00000000  0.00000000       0.006
   0.02564103  0.00000000  0.00000000       0.006
   0.03846154  0.00000000  0.00000000       0.006
   0.05128205  0.00000000  0.00000000       0.006
   0.06410256  0.00000000  0.00000000       0.006
   0.07692308  0.00000000  0.00000000       0.006
   0.08974359  0.00000000  0.00000000       0.006
   0.10256410  0.00000000  0.00000000       0.006
   0.11538462  0.00000000  0.00000000       0.006
   0.12820513  0.00000000  0.00000000       0.006
   0.14102564  0.00000000  0.00000000       0.006
   0.15384615  0.00000000  0.00000000       0.006
   0.16666667  0.00000000  0.00000000       0.006
   0.17948718  0.00000000  0.00000000       0.006
   0.19230769  0.00000000  0.00000000       0.006
   0.20512821  0.00000000  0.00000000       0.006
   0.21794872  0.00000000  0.00000000       0.006
   0.23076923  0.00000000  0.00000000       0.006
   0.24358974  0.00000000  0.00000000       0.006
   0.25641026  0.00000000  0.00000000       0.006
   0.26923077  0.00000000  0.00000000       0.006
   0.28205128  0.00000000  0.00000000       0.006
   0.29487179  0.00000000  0.00000000       0.006
   0.30769231  0.00000000  0.00000000       0.006
   0.32051282  0.00000000  0.00000000       0.006
   0.33333333  0.00000000  0.00000000       0.006
   0.34615385  0.00000000  0.00000000       0.006
   0.35897436  0.00000000  0.00000000       0.006
   0.37179487  0.00000000  0.00000000       0.006
   0.38461538  0.00000000  0.00000000       0.006
   0.39743590  0.00000000  0.00000000       0.006
   0.41025641  0.00000000  0.00000000       0.006
   0.42307692  0.00000000  0.00000000       0.006
   0.43589744  0.00000000  0.00000000       0.006
   0.44871795  0.00000000  0.00000000       0.006
   0.46153846  0.00000000  0.00000000       0.006
   0.47435897  0.00000000  0.00000000       0.006
   0.48717949  0.00000000  0.00000000       0.006
   0.50000000  0.00000000  0.00000000       0.006
   0.50000000  0.00000000  0.00000000       0.006
   0.50000000  0.01282051  0.00000000       0.006
   0.50000000  0.02564103  0.00000000       0.006
   0.50000000  0.03846154  0.00000000       0.006
   0.50000000  0.05128205  0.00000000       0.006
   0.50000000  0.06410256  0.00000000       0.006
   0.50000000  0.07692308  0.00000000       0.006
   0.50000000  0.08974359  0.00000000       0.006
   0.50000000  0.10256410  0.00000000       0.006
   0.50000000  0.11538462  0.00000000       0.006
   0.50000000  0.12820513  0.00000000       0.006
   0.50000000  0.14102564  0.00000000       0.006
   0.50000000  0.15384615  0.00000000       0.006
   0.50000000  0.16666667  0.00000000       0.006
   0.50000000  0.17948718  0.00000000       0.006
   0.50000000  0.19230769  0.00000000       0.006
   0.50000000  0.20512821  0.00000000       0.006
   0.50000000  0.21794872  0.00000000       0.006
   0.50000000  0.23076923  0.00000000       0.006
   0.50000000  0.24358974  0.00000000       0.006
   0.50000000  0.25641026  0.00000000       0.006
   0.50000000  0.26923077  0.00000000       0.006
   0.50000000  0.28205128  0.00000000       0.006
   0.50000000  0.29487179  0.00000000       0.006
   0.50000000  0.30769231  0.00000000       0.006
   0.50000000  0.32051282  0.00000000       0.006
   0.50000000  0.33333333  0.00000000       0.006
   0.50000000  0.34615385  0.00000000       0.006
   0.50000000  0.35897436  0.00000000       0.006
   0.50000000  0.37179487  0.00000000       0.006
   0.50000000  0.38461538  0.00000000       0.006
   0.50000000  0.39743590  0.00000000       0.006
   0.50000000  0.41025641  0.00000000       0.006
   0.50000000  0.42307692  0.00000000       0.006
   0.50000000  0.43589744  0.00000000       0.006
   0.50000000  0.44871795  0.00000000       0.006
   0.50000000  0.46153846  0.00000000       0.006
   0.50000000  0.47435897  0.00000000       0.006
   0.50000000  0.48717949  0.00000000       0.006
   0.50000000  0.50000000  0.00000000       0.006
   0.50000000  0.50000000  0.00000000       0.006
   0.48717949  0.48717949  0.00000000       0.006
   0.47435897  0.47435897  0.00000000       0.006
   0.46153846  0.46153846  0.00000000       0.006
   0.44871795  0.44871795  0.00000000       0.006
   0.43589744  0.43589744  0.00000000       0.006
   0.42307692  0.42307692  0.00000000       0.006
   0.41025641  0.41025641  0.00000000       0.006
   0.39743590  0.39743590  0.00000000       0.006
   0.38461538  0.38461538  0.00000000       0.006
   0.37179487  0.37179487  0.00000000       0.006
   0.35897436  0.35897436  0.00000000       0.006
   0.34615385  0.34615385  0.00000000       0.006
   0.33333333  0.33333333  0.00000000       0.006
   0.32051282  0.32051282  0.00000000       0.006
   0.30769231  0.30769231  0.00000000       0.006
   0.29487179  0.29487179  0.00000000       0.006
   0.28205128  0.28205128  0.00000000       0.006
   0.26923077  0.26923077  0.00000000       0.006
   0.25641026  0.25641026  0.00000000       0.006
   0.24358974  0.24358974  0.00000000       0.006
   0.23076923  0.23076923  0.00000000       0.006
   0.21794872  0.21794872  0.00000000       0.006
   0.20512821  0.20512821  0.00000000       0.006
   0.19230769  0.19230769  0.00000000       0.006
   0.17948718  0.17948718  0.00000000       0.006
   0.16666667  0.16666667  0.00000000       0.006
   0.15384615  0.15384615  0.00000000       0.006
   0.14102564  0.14102564  0.00000000       0.006
   0.12820513  0.12820513  0.00000000       0.006
   0.11538462  0.11538462  0.00000000       0.006
   0.10256410  0.10256410  0.00000000       0.006
   0.08974359  0.08974359  0.00000000       0.006
   0.07692308  0.07692308  0.00000000       0.006
   0.06410256  0.06410256  0.00000000       0.006
   0.05128205  0.05128205  0.00000000       0.006
   0.03846154  0.03846154  0.00000000       0.006
   0.02564103  0.02564103  0.00000000       0.006
   0.01282051  0.01282051  0.00000000       0.006
   0.00000000  0.00000000  0.00000000       0.006
   0.00000000  0.00000000  0.00000000       0.006
   0.01282051  0.01282051  0.01282051       0.006
   0.02564103  0.02564103  0.02564103       0.006
   0.03846154  0.03846154  0.03846154       0.006
   0.05128205  0.05128205  0.05128205       0.006
   0.06410256  0.06410256  0.06410256       0.006
   0.07692308  0.07692308  0.07692308       0.006
   0.08974359  0.08974359  0.08974359       0.006
   0.10256410  0.10256410  0.10256410       0.006
   0.11538462  0.11538462  0.11538462       0.006
   0.12820513  0.12820513  0.12820513       0.006
   0.14102564  0.14102564  0.14102564       0.006
   0.15384615  0.15384615  0.15384615       0.006
   0.16666667  0.16666667  0.16666667       0.006
   0.17948718  0.17948718  0.17948718       0.006
   0.19230769  0.19230769  0.19230769       0.006
   0.20512821  0.20512821  0.20512821       0.006
   0.21794872  0.21794872  0.21794872       0.006
   0.23076923  0.23076923  0.23076923       0.006
   0.24358974  0.24358974  0.24358974       0.006
   0.25641026  0.25641026  0.25641026       0.006
   0.26923077  0.26923077  0.26923077       0.006
   0.28205128  0.28205128  0.28205128       0.006
   0.29487179  0.29487179  0.29487179       0.006
   0.30769231  0.30769231  0.30769231       0.006
   0.32051282  0.32051282  0.32051282       0.006
   0.33333333  0.33333333  0.33333333       0.006
   0.34615385  0.34615385  0.34615385       0.006
   0.35897436  0.35897436  0.35897436       0.006
   0.37179487  0.37179487  0.37179487       0.006
   0.38461538  0.38461538  0.38461538       0.006
   0.39743590  0.39743590  0.39743590       0.006
   0.41025641  0.41025641  0.41025641       0.006
   0.42307692  0.42307692  0.42307692       0.006
   0.43589744  0.43589744  0.43589744       0.006
   0.44871795  0.44871795  0.44871795       0.006
   0.46153846  0.46153846  0.46153846       0.006
   0.47435897  0.47435897  0.47435897       0.006
   0.48717949  0.48717949  0.48717949       0.006
   0.50000000  0.50000000  0.50000000       0.006
 
 k-points in reciprocal lattice and weights: KPOINTS generated by PyProcar           
   0.00000000  0.00000000  0.00000000       0.006
   0.01282051  0.00000000  0.00000000       0.006
   0.02564103  0.00000000  0.00000000       0.006
   0.03846154  0.00000000  0.00000000       0.006
   0.05128205  0.00000000  0.00000000       0.006
   0.06410256  0.00000000  0.00000000       0.006
   0.07692308  0.00000000  0.00000000       0.006
   0.08974359  0.00000000  0.00000000       0.006
   0.10256410  0.00000000  0.00000000       0.006
   0.11538462  0.00000000  0.00000000       0.006
   0.12820513  0.00000000  0.00000000       0.006
   0.14102564  0.00000000  0.00000000       0.006
   0.15384615  0.00000000  0.00000000       0.006
   0.16666667  0.00000000  0.00000000       0.006
   0.17948718  0.00000000  0.00000000       0.006
   0.19230769  0.00000000  0.00000000       0.006
   0.20512821  0.00000000  0.00000000       0.006
   0.21794872  0.00000000  0.00000000       0.006
   0.23076923  0.00000000  0.00000000       0.006
   0.24358974  0.00000000  0.00000000       0.006
   0.25641026  0.00000000  0.00000000       0.006
   0.26923077  0.00000000  0.00000000       0.006
   0.28205128  0.00000000  0.00000000       0.006
   0.29487179  0.00000000  0.00000000       0.006
   0.30769231  0.00000000  0.00000000       0.006
   0.32051282  0.00000000  0.00000000       0.006
   0.33333333  0.00000000  0.00000000       0.006
   0.34615385  0.00000000  0.00000000       0.006
   0.35897436  0.00000000  0.00000000       0.006
   0.37179487  0.00000000  0.00000000       0.006
   0.38461538  0.00000000  0.00000000       0.006
   0.39743590  0.00000000  0.00000000       0.006
   0.41025641  0.00000000  0.00000000       0.006
   0.42307692  0.00000000  0.00000000       0.006
   0.43589744  0.00000000  0.00000000       0.006
   0.44871795  0.00000000  0.00000000       0.006
   0.46153846  0.00000000  0.00000000       0.006
   0.47435897  0.00000000  0.00000000       0.006
   0.48717949  0.00000000  0.00000000       0.006
   0.50000000  0.00000000  0.00000000       0.006
   0.50000000  0.00000000  0.00000000       0.006
   0.50000000  0.01282051  0.00000000       0.006
   0.50000000  0.02564103  0.00000000       0.006
   0.50000000  0.03846154  0.00000000       0.006
   0.50000000  0.05128205  0.00000000       0.006
   0.50000000  0.06410256  0.00000000       0.006
   0.50000000  0.07692308  0.00000000       0.006
   0.50000000  0.08974359  0.00000000       0.006
   0.50000000  0.10256410  0.00000000       0.006
   0.50000000  0.11538462  0.00000000       0.006
   0.50000000  0.12820513  0.00000000       0.006
   0.50000000  0.14102564  0.00000000       0.006
   0.50000000  0.15384615  0.00000000       0.006
   0.50000000  0.16666667  0.00000000       0.006
   0.50000000  0.17948718  0.00000000       0.006
   0.50000000  0.19230769  0.00000000       0.006
   0.50000000  0.20512821  0.00000000       0.006
   0.50000000  0.21794872  0.00000000       0.006
   0.50000000  0.23076923  0.00000000       0.006
   0.50000000  0.24358974  0.00000000       0.006
   0.50000000  0.25641026  0.00000000       0.006
   0.50000000  0.26923077  0.00000000       0.006
   0.50000000  0.28205128  0.00000000       0.006
   0.50000000  0.29487179  0.00000000       0.006
   0.50000000  0.30769231  0.00000000       0.006
   0.50000000  0.32051282  0.00000000       0.006
   0.50000000  0.33333333  0.00000000       0.006
   0.50000000  0.34615385  0.00000000       0.006
   0.50000000  0.35897436  0.00000000       0.006
   0.50000000  0.37179487  0.00000000       0.006
   0.50000000  0.38461538  0.00000000       0.006
   0.50000000  0.39743590  0.00000000       0.006
   0.50000000  0.41025641  0.00000000       0.006
   0.50000000  0.42307692  0.00000000       0.006
   0.50000000  0.43589744  0.00000000       0.006
   0.50000000  0.44871795  0.00000000       0.006
   0.50000000  0.46153846  0.00000000       0.006
   0.50000000  0.47435897  0.00000000       0.006
   0.50000000  0.48717949  0.00000000       0.006
   0.50000000  0.50000000  0.00000000       0.006
   0.50000000  0.50000000  0.00000000       0.006
   0.48717949  0.48717949  0.00000000       0.006
   0.47435897  0.47435897  0.00000000       0.006
   0.46153846  0.46153846  0.00000000       0.006
   0.44871795  0.44871795  0.00000000       0.006
   0.43589744  0.43589744  0.00000000       0.006
   0.42307692  0.42307692  0.00000000       0.006
   0.41025641  0.41025641  0.00000000       0.006
   0.39743590  0.39743590  0.00000000       0.006
   0.38461538  0.38461538  0.00000000       0.006
   0.37179487  0.37179487  0.00000000       0.006
   0.35897436  0.35897436  0.00000000       0.006
   0.34615385  0.34615385  0.00000000       0.006
   0.33333333  0.33333333  0.00000000       0.006
   0.32051282  0.32051282  0.00000000       0.006
   0.30769231  0.30769231  0.00000000       0.006
   0.29487179  0.29487179  0.00000000       0.006
   0.28205128  0.28205128  0.00000000       0.006
   0.26923077  0.26923077  0.00000000       0.006
   0.25641026  0.25641026  0.00000000       0.006
   0.24358974  0.24358974  0.00000000       0.006
   0.23076923  0.23076923  0.00000000       0.006
   0.21794872  0.21794872  0.00000000       0.006
   0.20512821  0.20512821  0.00000000       0.006
   0.19230769  0.19230769  0.00000000       0.006
   0.17948718  0.17948718  0.00000000       0.006
   0.16666667  0.16666667  0.00000000       0.006
   0.15384615  0.15384615  0.00000000       0.006
   0.14102564  0.14102564  0.00000000       0.006
   0.12820513  0.12820513  0.00000000       0.006
   0.11538462  0.11538462  0.00000000       0.006
   0.10256410  0.10256410  0.00000000       0.006
   0.08974359  0.08974359  0.00000000       0.006
   0.07692308  0.07692308  0.00000000       0.006
   0.06410256  0.06410256  0.00000000       0.006
   0.05128205  0.05128205  0.00000000       0.006
   0.03846154  0.03846154  0.00000000       0.006
   0.02564103  0.02564103  0.00000000       0.006
   0.01282051  0.01282051  0.00000000       0.006
   0.00000000  0.00000000  0.00000000       0.006
   0.00000000  0.00000000  0.00000000       0.006
   0.01282051  0.01282051  0.01282051       0.006
   0.02564103  0.02564103  0.02564103       0.006
   0.03846154  0.03846154  0.03846154       0.006
   0.05128205  0.05128205  0.05128205       0.006
   0.06410256  0.06410256  0.06410256       0.006
   0.07692308  0.07692308  0.07692308       0.006
   0.08974359  0.08974359  0.08974359       0.006
   0.10256410  0.10256410  0.10256410       0.006
   0.11538462  0.11538462  0.11538462       0.006
   0.12820513  0.12820513  0.12820513       0.006
   0.14102564  0.14102564  0.14102564       0.006
   0.15384615  0.15384615  0.15384615       0.006
   0.16666667  0.16666667  0.16666667       0.006
   0.17948718  0.17948718  0.17948718       0.006
   0.19230769  0.19230769  0.19230769       0.006
   0.20512821  0.20512821  0.20512821       0.006
   0.21794872  0.21794872  0.21794872       0.006
   0.23076923  0.23076923  0.23076923       0.006
   0.24358974  0.24358974  0.24358974       0.006
   0.25641026  0.25641026  0.25641026       0.006
   0.26923077  0.26923077  0.26923077       0.006
   0.28205128  0.28205128  0.28205128       0.006
   0.29487179  0.29487179  0.29487179       0.006
   0.30769231  0.30769231  0.30769231       0.006
   0.32051282  0.32051282  0.32051282       0.006
   0.33333333  0.33333333  0.33333333       0.006
   0.34615385  0.34615385  0.34615385       0.006
   0.35897436  0.35897436  0.35897436       0.006
   0.37179487  0.37179487  0.37179487       0.006
   0.38461538  0.38461538  0.38461538       0.006
   0.39743590  0.39743590  0.39743590       0.006
   0.41025641  0.41025641  0.41025641       0.006
   0.42307692  0.42307692  0.42307692       0.006
   0.43589744  0.43589744  0.43589744       0.006
   0.44871795  0.44871795  0.44871795       0.006
   0.46153846  0.46153846  0.46153846       0.006
   0.47435897  0.47435897  0.47435897       0.006
   0.48717949  0.48717949  0.48717949       0.006
   0.50000000  0.50000000  0.50000000       0.006
 
 position of ions in fractional coordinates (direct lattice) 
   0.00000000  0.00000000  0.00000000
   0.50000000  0.50000000  0.50000000
   0.50000000  0.50000000  0.00000000
   0.50000000  0.00000000  0.50000000
   0.00000000  0.50000000  0.50000000
 
 position of ions in cartesian coordinates  (Angst):
   0.00000000  0.00000000  0.00000000
   1.92326000  1.92326000  1.92326000
   1.92326000  1.92326000  0.00000000
   1.92326000  0.00000000  1.92326000
   0.00000000  1.92326000  1.92326000
 


--------------------------------------------------------------------------------------------------------


 k-point  1 :   0.0000 0.0000 0.0000  plane waves:    1935
 k-point  2 :   0.0128 0.0000 0.0000  plane waves:    1899
 k-point  3 :   0.0256 0.0000 0.0000  plane waves:    1899
 k-point  4 :   0.0385 0.0000 0.0000  plane waves:    1899
 k-point  5 :   0.0513 0.0000 0.0000  plane waves:    1899
 k-point  6 :   0.0641 0.0000 0.0000  plane waves:    1899
 k-point  7 :   0.0769 0.0000 0.0000  plane waves:    1895
 k-point  8 :   0.0897 0.0000 0.0000  plane waves:    1895
 k-point  9 :   0.1026 0.0000 0.0000  plane waves:    1895
 k-point 10 :   0.1154 0.0000 0.0000  plane waves:    1895
 k-point 11 :   0.1282 0.0000 0.0000  plane waves:    1895
 k-point 12 :   0.1410 0.0000 0.0000  plane waves:    1895
 k-point 13 :   0.1538 0.0000 0.0000  plane waves:    1891
 k-point 14 :   0.1667 0.0000 0.0000  plane waves:    1887
 k-point 15 :   0.1795 0.0000 0.0000  plane waves:    1899
 k-point 16 :   0.1923 0.0000 0.0000  plane waves:    1899
 k-point 17 :   0.2051 0.0000 0.0000  plane waves:    1899
 k-point 18 :   0.2179 0.0000 0.0000  plane waves:    1907
 k-point 19 :   0.2308 0.0000 0.0000  plane waves:    1907
 k-point 20 :   0.2436 0.0000 0.0000  plane waves:    1907
 k-point 21 :   0.2564 0.0000 0.0000  plane waves:    1907
 k-point 22 :   0.2692 0.0000 0.0000  plane waves:    1907
 k-point 23 :   0.2821 0.0000 0.0000  plane waves:    1907
 k-point 24 :   0.2949 0.0000 0.0000  plane waves:    1907
 k-point 25 :   0.3077 0.0000 0.0000  plane waves:    1915
 k-point 26 :   0.3205 0.0000 0.0000  plane waves:    1916
 k-point 27 :   0.3333 0.0000 0.0000  plane waves:    1916
 k-point 28 :   0.3462 0.0000 0.0000  plane waves:    1916
 k-point 29 :   0.3590 0.0000 0.0000  plane waves:    1916
 k-point 30 :   0.3718 0.0000 0.0000  plane waves:    1908
 k-point 31 :   0.3846 0.0000 0.0000  plane waves:    1912
 k-point 32 :   0.3974 0.0000 0.0000  plane waves:    1912
 k-point 33 :   0.4103 0.0000 0.0000  plane waves:    1908
 k-point 34 :   0.4231 0.0000 0.0000  plane waves:    1904
 k-point 35 :   0.4359 0.0000 0.0000  plane waves:    1904
 k-point 36 :   0.4487 0.0000 0.0000  plane waves:    1908
 k-point 37 :   0.4615 0.0000 0.0000  plane waves:    1904
 k-point 38 :   0.4744 0.0000 0.0000  plane waves:    1904
 k-point 39 :   0.4872 0.0000 0.0000  plane waves:    1888
 k-point 40 :   0.5000 0.0000 0.0000  plane waves:    1888
 k-point 41 :   0.5000 0.0000 0.0000  plane waves:    1888
 k-point 42 :   0.5000 0.0128 0.0000  plane waves:    1888
 k-point 43 :   0.5000 0.0256 0.0000  plane waves:    1896
 k-point 44 :   0.5000 0.0385 0.0000  plane waves:    1900
 k-point 45 :   0.5000 0.0513 0.0000  plane waves:    1900
 k-point 46 :   0.5000 0.0641 0.0000  plane waves:    1900
 k-point 47 :   0.5000 0.0769 0.0000  plane waves:    1900
 k-point 48 :   0.5000 0.0897 0.0000  plane waves:    1904
 k-point 49 :   0.5000 0.1026 0.0000  plane waves:    1898
 k-point 50 :   0.5000 0.1154 0.0000  plane waves:    1902
 k-point 51 :   0.5000 0.1282 0.0000  plane waves:    1902
 k-point 52 :   0.5000 0.1410 0.0000  plane waves:    1902
 k-point 53 :   0.5000 0.1538 0.0000  plane waves:    1894
 k-point 54 :   0.5000 0.1667 0.0000  plane waves:    1896
 k-point 55 :   0.5000 0.1795 0.0000  plane waves:    1896
 k-point 56 :   0.5000 0.1923 0.0000  plane waves:    1900
 k-point 57 :   0.5000 0.2051 0.0000  plane waves:    1896
 k-point 58 :   0.5000 0.2179 0.0000  plane waves:    1904
 k-point 59 :   0.5000 0.2308 0.0000  plane waves:    1910
 k-point 60 :   0.5000 0.2436 0.0000  plane waves:    1914
 k-point 61 :   0.5000 0.2564 0.0000  plane waves:    1914
 k-point 62 :   0.5000 0.2692 0.0000  plane waves:    1908
 k-point 63 :   0.5000 0.2821 0.0000  plane waves:    1896
 k-point 64 :   0.5000 0.2949 0.0000  plane waves:    1900
 k-point 65 :   0.5000 0.3077 0.0000  plane waves:    1900
 k-point 66 :   0.5000 0.3205 0.0000  plane waves:    1900
 k-point 67 :   0.5000 0.3333 0.0000  plane waves:    1896
 k-point 68 :   0.5000 0.3462 0.0000  plane waves:    1908
 k-point 69 :   0.5000 0.3590 0.0000  plane waves:    1908
 k-point 70 :   0.5000 0.3718 0.0000  plane waves:    1910
 k-point 71 :   0.5000 0.3846 0.0000  plane waves:    1914
 k-point 72 :   0.5000 0.3974 0.0000  plane waves:    1910
 k-point 73 :   0.5000 0.4103 0.0000  plane waves:    1910
 k-point 74 :   0.5000 0.4231 0.0000  plane waves:    1910
 k-point 75 :   0.5000 0.4359 0.0000  plane waves:    1918
 k-point 76 :   0.5000 0.4487 0.0000  plane waves:    1918
 k-point 77 :   0.5000 0.4615 0.0000  plane waves:    1926
 k-point 78 :   0.5000 0.4744 0.0000  plane waves:    1924
 k-point 79 :   0.5000 0.4872 0.0000  plane waves:    1924
 k-point 80 :   0.5000 0.5000 0.0000  plane waves:    1924
 k-point 81 :   0.5000 0.5000 0.0000  plane waves:    1924
 k-point 82 :   0.4872 0.4872 0.0000  plane waves:    1924
 k-point 83 :   0.4744 0.4744 0.0000  plane waves:    1928
 k-point 84 :   0.4615 0.4615 0.0000  plane waves:    1918
 k-point 85 :   0.4487 0.4487 0.0000  plane waves:    1912
 k-point 86 :   0.4359 0.4359 0.0000  plane waves:    1912
 k-point 87 :   0.4231 0.4231 0.0000  plane waves:    1913
 k-point 88 :   0.4103 0.4103 0.0000  plane waves:    1901
 k-point 89 :   0.3974 0.3974 0.0000  plane waves:    1901
 k-point 90 :   0.3846 0.3846 0.0000  plane waves:    1901
 k-point 91 :   0.3718 0.3718 0.0000  plane waves:    1897
 k-point 92 :   0.3590 0.3590 0.0000  plane waves:    1895
 k-point 93 :   0.3462 0.3462 0.0000  plane waves:    1899
 k-point 94 :   0.3333 0.3333 0.0000  plane waves:    1903
 k-point 95 :   0.3205 0.3205 0.0000  plane waves:    1899
 k-point 96 :   0.3077 0.3077 0.0000  plane waves:    1887
 k-point 97 :   0.2949 0.2949 0.0000  plane waves:    1891
 k-point 98 :   0.2821 0.2821 0.0000  plane waves:    1895
 k-point 99 :   0.2692 0.2692 0.0000  plane waves:    1897
 k-point ** :   0.2564 0.2564 0.0000  plane waves:    1893
 k-point ** :   0.2436 0.2436 0.0000  plane waves:    1895
 k-point ** :   0.2308 0.2308 0.0000  plane waves:    1901
 k-point ** :   0.2179 0.2179 0.0000  plane waves:    1897
 k-point ** :   0.2051 0.2051 0.0000  plane waves:    1893
 k-point ** :   0.1923 0.1923 0.0000  plane waves:    1897
 k-point ** :   0.1795 0.1795 0.0000  plane waves:    1901
 k-point ** :   0.1667 0.1667 0.0000  plane waves:    1893
 k-point ** :   0.1538 0.1538 0.0000  plane waves:    1897
 k-point ** :   0.1410 0.1410 0.0000  plane waves:    1893
 k-point ** :   0.1282 0.1282 0.0000  plane waves:    1889
 k-point ** :   0.1154 0.1154 0.0000  plane waves:    1893
 k-point ** :   0.1026 0.1026 0.0000  plane waves:    1897
 k-point ** :   0.0897 0.0897 0.0000  plane waves:    1895
 k-point ** :   0.0769 0.0769 0.0000  plane waves:    1895
 k-point ** :   0.0641 0.0641 0.0000  plane waves:    1899
 k-point ** :   0.0513 0.0513 0.0000  plane waves:    1899
 k-point ** :   0.0385 0.0385 0.0000  plane waves:    1901
 k-point ** :   0.0256 0.0256 0.0000  plane waves:    1901
 k-point ** :   0.0128 0.0128 0.0000  plane waves:    1901
 k-point ** :   0.0000 0.0000 0.0000  plane waves:    1935
 k-point ** :   0.0000 0.0000 0.0000  plane waves:    1935
 k-point ** :   0.0128 0.0128 0.0128  plane waves:    1899
 k-point ** :   0.0256 0.0256 0.0256  plane waves:    1899
 k-point ** :   0.0385 0.0385 0.0385  plane waves:    1899
 k-point ** :   0.0513 0.0513 0.0513  plane waves:    1893
 k-point ** :   0.0641 0.0641 0.0641  plane waves:    1893
 k-point ** :   0.0769 0.0769 0.0769  plane waves:    1899
 k-point ** :   0.0897 0.0897 0.0897  plane waves:    1896
 k-point ** :   0.1026 0.1026 0.1026  plane waves:    1899
 k-point ** :   0.1154 0.1154 0.1154  plane waves:    1899
 k-point ** :   0.1282 0.1282 0.1282  plane waves:    1899
 k-point ** :   0.1410 0.1410 0.1410  plane waves:    1893
 k-point ** :   0.1538 0.1538 0.1538  plane waves:    1905
 k-point ** :   0.1667 0.1667 0.1667  plane waves:    1905
 k-point ** :   0.1795 0.1795 0.1795  plane waves:    1905
 k-point ** :   0.1923 0.1923 0.1923  plane waves:    1893
 k-point ** :   0.2051 0.2051 0.2051  plane waves:    1893
 k-point ** :   0.2179 0.2179 0.2179  plane waves:    1899
 k-point ** :   0.2308 0.2308 0.2308  plane waves:    1899
 k-point ** :   0.2436 0.2436 0.2436  plane waves:    1899
 k-point ** :   0.2564 0.2564 0.2564  plane waves:    1902
 k-point ** :   0.2692 0.2692 0.2692  plane waves:    1902
 k-point ** :   0.2821 0.2821 0.2821  plane waves:    1902
 k-point ** :   0.2949 0.2949 0.2949  plane waves:    1902
 k-point ** :   0.3077 0.3077 0.3077  plane waves:    1899
 k-point ** :   0.3205 0.3205 0.3205  plane waves:    1890
 k-point ** :   0.3333 0.3333 0.3333  plane waves:    1896
 k-point ** :   0.3462 0.3462 0.3462  plane waves:    1884
 k-point ** :   0.3590 0.3590 0.3590  plane waves:    1893
 k-point ** :   0.3718 0.3718 0.3718  plane waves:    1896
 k-point ** :   0.3846 0.3846 0.3846  plane waves:    1884
 k-point ** :   0.3974 0.3974 0.3974  plane waves:    1884
 k-point ** :   0.4103 0.4103 0.4103  plane waves:    1896
 k-point ** :   0.4231 0.4231 0.4231  plane waves:    1890
 k-point ** :   0.4359 0.4359 0.4359  plane waves:    1880
 k-point ** :   0.4487 0.4487 0.4487  plane waves:    1880
 k-point ** :   0.4615 0.4615 0.4615  plane waves:    1880
 k-point ** :   0.4744 0.4744 0.4744  plane waves:    1880
 k-point ** :   0.4872 0.4872 0.4872  plane waves:    1904
 k-point ** :   0.5000 0.5000 0.5000  plane waves:    1904

 maximum and minimum number of plane-waves per node :      1935     1880

 maximum number of plane-waves:      1935
 maximum index in each direction: 
   IXMAX=    7   IYMAX=    7   IZMAX=    7
   IXMIN=   -8   IYMIN=   -8   IZMIN=   -8


 serial   3D FFT for wavefunctions
 parallel 3D FFT for charge:
    minimum data exchange during FFTs selected (reduces bandwidth)


 total amount of memory used by VASP MPI-rank0   423295. kBytes
=======================================================================

   base      :      30000. kBytes
   nonl-proj :     133902. kBytes
   fftplans  :      16524. kBytes
   grid      :       7861. kBytes
   one-center:         77. kBytes
   wavefun   :     234931. kBytes
 
     INWAV:  cpu time    0.4669: real time    0.4668
 initial charge density was supplied:
 number of electron      33.0000001 magnetization 
 keeping initial charge density in first step


--------------------------------------------------------------------------------------------------------


 Maximum index for augmentation-charges       114425 (set IRDMAX)


--------------------------------------------------------------------------------------------------------


 First call to EWALD:  gamma=   0.461
 Maximum number of real-space cells 3x 3x 3
 Maximum number of reciprocal cells 3x 3x 3

    FEWALD:  cpu time    0.0020: real time    0.0016


--------------------------------------- Iteration      1(   1)  ---------------------------------------


    POTLOK:  cpu time    0.0530: real time    0.0535
    SETDIJ:  cpu time    0.0870: real time    0.0863
     EDDAV:  cpu time   26.2750: real time   26.3134
       DOS:  cpu time    0.0210: real time    0.0208
    --------------------------------------------
      LOOP:  cpu time   26.4360: real time   26.4741

 eigenvalue-minimisations  : 20456
 total energy-change (2. order) :-0.2931638E+02  (-0.2337285E+02)
 number of electron      33.0000001 magnetization 
 augmentation part       33.0000001 magnetization 

 Free energy of the ion-electron system (eV)
  ---------------------------------------------------
  alpha Z        PSCENC =       180.95685896
  Ewald energy   TEWEN  =     -2047.90029510
  -Hartree energ DENC   =      -423.69568494
  -exchange      EXHF   =         0.00000000
  -V(xc)+E(xc)   XCENC  =        77.79134472
  PAW double counting   =      3878.17128647    -3826.89594645
  entropy T*S    EENTRO =        -0.00281110
  eigenvalues    EBANDS =      -174.39380368
  atomic energy  EATOM  =      2306.65267270
  Solvation  Ediel_sol  =         0.00000000
  ---------------------------------------------------
  free energy    TOTEN  =       -29.31637842 eV

  energy without entropy =      -29.31356732  energy(sigma->0) =      -29.31544139


--------------------------------------------------------------------------------------------------------




--------------------------------------- Iteration      1(   2)  ---------------------------------------


     EDDAV:  cpu time   22.7925: real time   22.7977
       DOS:  cpu time    0.0210: real time    0.0207
    --------------------------------------------
      LOOP:  cpu time   22.8135: real time   22.8183

 eigenvalue-minimisations  : 17164
 total energy-change (2. order) :-0.8323784E+01  (-0.7926738E+01)
 number of electron      33.0000001 magnetization 
 augmentation part       33.0000001 magnetization 

 Free energy of the ion-electron system (eV)
  ---------------------------------------------------
  alpha Z        PSCENC =       180.95685896
  Ewald energy   TEWEN  =     -2047.90029510
  -Hartree energ DENC   =      -423.69568494
  -exchange      EXHF   =         0.00000000
  -V(xc)+E(xc)   XCENC  =        77.79134472
  PAW double counting   =      3878.17128647    -3826.89594645
  entropy T*S    EENTRO =        -0.01032202
  eigenvalues    EBANDS =      -182.71007708
  atomic energy  EATOM  =      2306.65267270
  Solvation  Ediel_sol  =         0.00000000
  ---------------------------------------------------
  free energy    TOTEN  =       -37.64016274 eV

  energy without entropy =      -37.62984073  energy(sigma->0) =      -37.63672207


--------------------------------------------------------------------------------------------------------




--------------------------------------- Iteration      1(   3)  ---------------------------------------


     EDDAV:  cpu time   24.4273: real time   24.4307
       DOS:  cpu time    0.0200: real time    0.0203
    --------------------------------------------
      LOOP:  cpu time   24.4473: real time   24.4510

 eigenvalue-minimisations  : 18942
 total energy-change (2. order) :-0.1669046E+00  (-0.1665313E+00)
 number of electron      33.0000001 magnetization 
 augmentation part       33.0000001 magnetization 

 Free energy of the ion-electron system (eV)
  ---------------------------------------------------
  alpha Z        PSCENC =       180.95685896
  Ewald energy   TEWEN  =     -2047.90029510
  -Hartree energ DENC   =      -423.69568494
  -exchange      EXHF   =         0.00000000
  -V(xc)+E(xc)   XCENC  =        77.79134472
  PAW double counting   =      3878.17128647    -3826.89594645
  entropy T*S    EENTRO =        -0.01042699
  eigenvalues    EBANDS =      -182.87687675
  atomic energy  EATOM  =      2306.65267270
  Solvation  Ediel_sol  =         0.00000000
  ---------------------------------------------------
  free energy    TOTEN  =       -37.80706738 eV

  energy without entropy =      -37.79664040  energy(sigma->0) =      -37.80359172


--------------------------------------------------------------------------------------------------------




--------------------------------------- Iteration      1(   4)  ---------------------------------------


     EDDAV:  cpu time   23.4424: real time   23.4472
       DOS:  cpu time    0.0210: real time    0.0205
    --------------------------------------------
      LOOP:  cpu time   23.4634: real time   23.4677

 eigenvalue-minimisations  : 18272
 total energy-change (2. order) :-0.2378744E-02  (-0.2378370E-02)
 number of electron      33.0000001 magnetization 
 augmentation part       33.0000001 magnetization 

 Free energy of the ion-electron system (eV)
  ---------------------------------------------------
  alpha Z        PSCENC =       180.95685896
  Ewald energy   TEWEN  =     -2047.90029510
  -Hartree energ DENC   =      -423.69568494
  -exchange      EXHF   =         0.00000000
  -V(xc)+E(xc)   XCENC  =        77.79134472
  PAW double counting   =      3878.17128647    -3826.89594645
  entropy T*S    EENTRO =        -0.01042826
  eigenvalues    EBANDS =      -182.87925422
  atomic energy  EATOM  =      2306.65267270
  Solvation  Ediel_sol  =         0.00000000
  ---------------------------------------------------
  free energy    TOTEN  =       -37.80944613 eV

  energy without entropy =      -37.79901786  energy(sigma->0) =      -37.80597004


--------------------------------------------------------------------------------------------------------




--------------------------------------- Iteration      1(   5)  ---------------------------------------


     EDDAV:  cpu time   21.2628: real time   21.2659
       DOS:  cpu time    0.0200: real time    0.0206
    --------------------------------------------
      LOOP:  cpu time   21.2828: real time   21.2864

 eigenvalue-minimisations  : 17368
 total energy-change (2. order) :-0.6274356E-04  (-0.6274238E-04)
 number of electron      33.0000001 magnetization 
 augmentation part       33.0000001 magnetization 

 Free energy of the ion-electron system (eV)
  ---------------------------------------------------
  alpha Z        PSCENC =       180.95685896
  Ewald energy   TEWEN  =     -2047.90029510
  -Hartree energ DENC   =      -423.69568494
  -exchange      EXHF   =         0.00000000
  -V(xc)+E(xc)   XCENC  =        77.79134472
  PAW double counting   =      3878.17128647    -3826.89594645
  entropy T*S    EENTRO =        -0.01042825
  eigenvalues    EBANDS =      -182.87931697
  atomic energy  EATOM  =      2306.65267270
  Solvation  Ediel_sol  =         0.00000000
  ---------------------------------------------------
  free energy    TOTEN  =       -37.80950887 eV

  energy without entropy =      -37.79908062  energy(sigma->0) =      -37.80603279


--------------------------------------------------------------------------------------------------------




 average (electrostatic) potential at core
  the test charge radii are     1.1929  1.2064  0.7215
  (the norm of the test charge is              1.0000)
       1 -34.8643       2 -42.7898       3 -71.6855       4 -71.6855       5 -71.6855
 
 
 
 E-fermi :   4.4763     XC(G=0): -11.7196     alpha+bet :-13.3782


 k-point     1 :       0.0000    0.0000    0.0000
  band No.  band energies     occupation 
      1     -29.0552      2.00000
      2     -14.3075      2.00000
      3     -13.0952      2.00000
      4     -13.0952      2.00000
      5     -11.0901      2.00000
      6     -11.0901      2.00000
      7     -11.0901      2.00000
      8       0.1646      2.00000
      9       0.1646      2.00000
     10       0.1646      2.00000
     11       2.1424      2.00000
     12       2.1424      2.00000
     13       2.1424      2.00000
     14       2.9883      2.00000
     15       2.9883      2.00000
     16       2.9883      2.00000
     17       4.3088      1.99811
     18       4.3088      1.99811
     19       4.3088      1.99811
     20       6.4882     -0.00000
     21       6.4882     -0.00000
     22       8.8284     -0.00000
     23       8.8284     -0.00000
     24       9.9202     -0.00000
     25      11.8641      0.00000
     26      11.8641      0.00000
     27      11.8641      0.00000
     28      18.4668      0.00000
     29      20.8060      0.00000
     30      20.8060      0.00000
     31      20.8060      0.00000
     32      24.5563      0.00000
     33      24.5563      0.00000
     34      24.5563      0.00000
     35      25.0014      0.00000
     36      25.0014      0.00000
     37      25.4294      0.00000
     38      26.7461      0.00000
     39      26.7461      0.00000
     40      26.7461      0.00000
     41      30.4351      0.00000
     42      30.4351      0.00000
     43      30.4351      0.00000
     44      34.2927      0.00000
     45      34.3190      0.00000
     46      34.3709      0.00000

 k-point     2 :       0.0128    0.0000    0.0000
  band No.  band energies     occupation 
      1     -29.0552      2.00000
      2     -14.3074      2.00000
      3     -13.0957      2.00000
      4     -13.0952      2.00000
      5     -11.0899      2.00000
      6     -11.0899      2.00000
      7     -11.0887      2.00000
      8       0.1622      2.00000
      9       0.1645      2.00000
     10       0.1645      2.00000
     11       2.1394      2.00000
     12       2.1394      2.00000
     13       2.1407      2.00000
     14       2.9823      2.00000
     15       2.9866      2.00000
     16       2.9866      2.00000
     17       4.3090      1.99768
     18       4.3142      1.98545
     19       4.3142      1.98545
     20       6.4882     -0.00000
     21       6.4947     -0.00000
     22       8.8313     -0.00000
     23       8.8317     -0.00000
     24       9.9243     -0.00000
     25      11.8638      0.00000
     26      11.8661      0.00000
     27      11.8661      0.00000
     28      18.4673      0.00000
     29      20.8052      0.00000
     30      20.8056      0.00000
     31      20.8056      0.00000
     32      24.5269      0.00000
     33      24.5532      0.00000
     34      24.5532      0.00000
     35      24.9863      0.00000
     36      25.0006      0.00000
     37      25.4620      0.00000
     38      26.7422      0.00000
     39      26.7467      0.00000
     40      26.7467      0.00000
     41      30.4313      0.00000
     42      30.4313      0.00000
     43      30.4401      0.00000
     44      34.2757      0.00000
     45      34.3821      0.00000
     46      34.4892      0.00000

 k-point     3 :       0.0256    0.0000    0.0000
  band No.  band energies     occupation 
      1     -29.0550      2.00000
      2     -14.3074      2.00000
      3     -13.0971      2.00000
      4     -13.0949      2.00000
      5     -11.0896      2.00000
      6     -11.0896      2.00000
      7     -11.0848      2.00000
      8       0.1547      2.00000
      9       0.1642      2.00000
     10       0.1642      2.00000
     11       2.1302      2.00000
     12       2.1302      2.00000
     13       2.1355      2.00000
     14       2.9629      2.00000
     15       2.9803      2.00000
     16       2.9803      2.00000
     17       4.3096      1.99638
     18       4.3302      1.94031
     19       4.3302      1.94031
     20       6.4883     -0.00000
     21       6.5142     -0.00000
     22       8.8401     -0.00000
     23       8.8415     -0.00000
     24       9.9366      0.00000
     25      11.8628      0.00000
     26      11.8722      0.00000
     27      11.8722      0.00000
     28      18.4688      0.00000
     29      20.8031      0.00000
     30      20.8044      0.00000
     31      20.8044      0.00000
     32      24.4493      0.00000
     33      24.5438      0.00000
     34      24.5438      0.00000
     35      24.9415      0.00000
     36      24.9985      0.00000
     37      25.5492      0.00000
     38      26.7305      0.00000
     39      26.7486      0.00000
     40      26.7486      0.00000
     41      30.4198      0.00000
     42      30.4198      0.00000
     43      30.4545      0.00000
     44      34.2215      0.00000
     45      34.3204      0.00000
     46      34.3681      0.00000

 k-point     4 :       0.0385    0.0000    0.0000
  band No.  band energies     occupation 
      1     -29.0548      2.00000
      2     -14.3073      2.00000
      3     -13.0994      2.00000
      4     -13.0946      2.00000
      5     -11.0891      2.00000
      6     -11.0891      2.00000
      7     -11.0784      2.00000
      8       0.1423      2.00000
      9       0.1637      2.00000
     10       0.1637      2.00000
     11       2.1152      2.00000
     12       2.1152      2.00000
     13       2.1269      2.00000
     14       2.9313      2.00000
     15       2.9703      2.00000
     16       2.9703      2.00000
     17       4.3105      1.99420
     18       4.3562      1.84072
     19       4.3562      1.84072
     20       6.4886     -0.00000
     21       6.5461     -0.00000
     22       8.8547     -0.00000
     23       8.8579     -0.00000
     24       9.9570      0.00000
     25      11.8611      0.00000
     26      11.8822      0.00000
     27      11.8822      0.00000
     28      18.4712      0.00000
     29      20.7994      0.00000
     30      20.8025      0.00000
     31      20.8025      0.00000
     32      24.3424      0.00000
     33      24.5283      0.00000
     34      24.5283      0.00000
     35      24.8684      0.00000
     36      24.9947      0.00000
     37      25.6720      0.00000
     38      26.7111      0.00000
     39      26.7515      0.00000
     40      26.7515      0.00000
     41      30.4009      0.00000
     42      30.4009      0.00000
     43      30.4773      0.00000
     44      34.1346      0.00000
     45      34.3302      0.00000
     46      34.3375      0.00000

 k-point     5 :       0.0513    0.0000    0.0000
  band No.  band energies     occupation 
      1     -29.0544      2.00000
      2     -14.3073      2.00000
      3     -13.1025      2.00000
      4     -13.0940      2.00000
      5     -11.0884      2.00000
      6     -11.0884      2.00000
      7     -11.0695      2.00000
      8       0.1252      2.00000
      9       0.1629      2.00000
     10       0.1629      2.00000
     11       2.0944      2.00000
     12       2.0944      2.00000
     13       2.1151      2.00000
     14       2.8884      2.00000
     15       2.9572      2.00000
     16       2.9572      2.00000
     17       4.3119      1.99109
     18       4.3914      1.65224
     19       4.3914      1.65224
     20       6.4889     -0.00000
     21       6.5894     -0.00000
     22       8.8751     -0.00000
     23       8.8806     -0.00000
     24       9.9854      0.00000
     25      11.8588      0.00000
     26      11.8963      0.00000
     27      11.8963      0.00000
     28      18.4744      0.00000
     29      20.7943      0.00000
     30      20.7999      0.00000
     31      20.7999      0.00000
     32      24.2205      0.00000
     33      24.5068      0.00000
     34      24.5068      0.00000
     35      24.7690      0.00000
     36      24.9894      0.00000
     37      25.8161      0.00000
     38      26.6845      0.00000
     39      26.7555      0.00000
     40      26.7555      0.00000
     41      30.3751      0.00000
     42      30.3751      0.00000
     43      30.5066      0.00000
     44      34.2121      0.00000
     45      34.3430      0.00000
     46      34.4953      0.00000

 k-point     6 :       0.0641    0.0000    0.0000
  band No.  band energies     occupation 
      1     -29.0540      2.00000
      2     -14.3074      2.00000
      3     -13.1063      2.00000
      4     -13.0934      2.00000
      5     -11.0875      2.00000
      6     -11.0875      2.00000
      7     -11.0583      2.00000
      8       0.1033      2.00000
      9       0.1620      2.00000
     10       0.1620      2.00000
     11       2.0682      2.00000
     12       2.0682      2.00000
     13       2.1001      2.00000
     14       2.8352      2.00000
     15       2.9417      2.00000
     16       2.9417      2.00000
     17       4.3136      1.98701
     18       4.4347      1.34414
     19       4.4347      1.34414
     20       6.4892     -0.00000
     21       6.6431     -0.00000
     22       8.9012     -0.00000
     23       8.9095     -0.00000
     24      10.0218      0.00000
     25      11.8559      0.00000
     26      11.9141      0.00000
     27      11.9141      0.00000
     28      18.4782      0.00000
     29      20.7876      0.00000
     30      20.7966      0.00000
     31      20.7966      0.00000
     32      24.0915      0.00000
     33      24.4796      0.00000
     34      24.4796      0.00000
     35      24.6460      0.00000
     36      24.9823      0.00000
     37      25.9734      0.00000
     38      26.6509      0.00000
     39      26.7604      0.00000
     40      26.7604      0.00000
     41      30.3431      0.00000
     42      30.3431      0.00000
     43      30.5401      0.00000
     44      33.8878      0.00000
     45      34.3634      0.00000
     46      34.4107      0.00000

 k-point     7 :       0.0769    0.0000    0.0000
  band No.  band energies     occupation 
      1     -29.0535      2.00000
      2     -14.3077      2.00000
      3     -13.1105      2.00000
      4     -13.0925      2.00000
      5     -11.0864      2.00000
      6     -11.0864      2.00000
      7     -11.0448      2.00000
      8       0.0769      2.00000
      9       0.1609      2.00000
     10       0.1609      2.00000
     11       2.0370      2.00000
     12       2.0370      2.00000
     13       2.0821      2.00000
     14       2.7730      2.00000
     15       2.9245      2.00000
     16       2.9245      2.00000
     17       4.3156      1.98191
     18       4.4851      0.92588
     19       4.4851      0.92587
     20       6.4897     -0.00000
     21       6.7058     -0.00000
     22       8.9329     -0.00000
     23       8.9445     -0.00000
     24      10.0659      0.00000
     25      11.8523      0.00000
     26      11.9357      0.00000
     27      11.9357      0.00000
     28      18.4823      0.00000
     29      20.7792      0.00000
     30      20.7926      0.00000
     31      20.7926      0.00000
     32      23.9598      0.00000
     33      24.4468      0.00000
     34      24.4468      0.00000
     35      24.5026      0.00000
     36      24.9732      0.00000
     37      26.1395      0.00000
     38      26.6111      0.00000
     39      26.7660      0.00000
     40      26.7660      0.00000
     41      30.3056      0.00000
     42      30.3056      0.00000
     43      30.5752      0.00000
     44      33.7386      0.00000
     45      34.3941      0.00000
     46      34.4014      0.00000

 k-point     8 :       0.0897    0.0000    0.0000
  band No.  band energies     occupation 
      1     -29.0529      2.00000
      2     -14.3081      2.00000
      3     -13.1151      2.00000
      4     -13.0916      2.00000
      5     -11.0852      2.00000
      6     -11.0852      2.00000
      7     -11.0293      2.00000
      8       0.0460      2.00000
      9       0.1596      2.00000
     10       0.1596      2.00000
     11       2.0012      2.00000
     12       2.0012      2.00000
     13       2.0613      2.00000
     14       2.7032      2.00000
     15       2.9063      2.00000
     16       2.9063      2.00000
     17       4.3180      1.97571
     18       4.5415      0.47937
     19       4.5415      0.47937
     20       6.4902     -0.00000
     21       6.7764     -0.00000
     22       8.9701     -0.00000
     23       8.9852     -0.00000
     24      10.1176      0.00000
     25      11.8482      0.00000
     26      11.9609      0.00000
     27      11.9609      0.00000
     28      18.4864      0.00000
     29      20.7690      0.00000
     30      20.7879      0.00000
     31      20.7879      0.00000
     32      23.8278      0.00000
     33      24.3420      0.00000
     34      24.4087      0.00000
     35      24.4087      0.00000
     36      24.9620      0.00000
     37      26.3118      0.00000
     38      26.5655      0.00000
     39      26.7722      0.00000
     40      26.7722      0.00000
     41      30.2635      0.00000
     42      30.2635      0.00000
     43      30.6090      0.00000
     44      33.5779      0.00000
     45      34.4198      0.00000
     46      34.4570      0.00000

 k-point     9 :       0.1026    0.0000    0.0000
  band No.  band energies     occupation 
      1     -29.0521      2.00000
      2     -14.3088      2.00000
      3     -13.1198      2.00000
      4     -13.0905      2.00000
      5     -11.0837      2.00000
      6     -11.0837      2.00000
      7     -11.0119      2.00000
      8       0.0110      2.00000
      9       0.1581      2.00000
     10       0.1581      2.00000
     11       1.9613      2.00000
     12       1.9613      2.00000
     13       2.0379      2.00000
     14       2.6271      2.00000
     15       2.8875      2.00000
     16       2.8875      2.00000
     17       4.3208      1.96836
     18       4.6030      0.13122
     19       4.6030      0.13121
     20       6.4907     -0.00000
     21       6.8535     -0.00000
     22       9.0128     -0.00000
     23       9.0313     -0.00000
     24      10.1767      0.00000
[...]
     18       6.7313     -0.00000
     19       6.7313     -0.00000
     20      10.4328      0.00000
     21      10.4328      0.00000
     22      10.7191      0.00000
     23      10.8284      0.00000
     24      10.8284      0.00000
     25      13.3057      0.00000
     26      13.3057      0.00000
     27      14.1622      0.00000
     28      17.9777      0.00000
     29      18.2214      0.00000
     30      18.2214      0.00000
     31      20.0094      0.00000
     32      20.9011      0.00000
     33      21.0238      0.00000
     34      21.0238      0.00000
     35      23.3082      0.00000
     36      23.3082      0.00000
     37      23.7773      0.00000
     38      26.9678      0.00000
     39      27.4512      0.00000
     40      27.4512      0.00000
     41      31.0513      0.00000
     42      31.0513      0.00000
     43      31.6719      0.00000
     44      33.1179      0.00000
     45      33.5334      0.00000
     46      33.5335      0.00000

 k-point   156 :       0.4487    0.4487    0.4487
  band No.  band energies     occupation 
      1     -28.9775      2.00000
      2     -13.0542      2.00000
      3     -12.9679      2.00000
      4     -12.9679      2.00000
      5     -11.3781      2.00000
      6     -11.3781      2.00000
      7     -11.3104      2.00000
      8      -1.7851      2.00000
      9      -1.0968      2.00000
     10      -1.0968      2.00000
     11      -0.5889      2.00000
     12      -0.5229      2.00000
     13      -0.5229      2.00000
     14       3.2794      2.00000
     15       3.2794      2.00000
     16       3.3310      2.00000
     17       6.7503     -0.00000
     18       6.7569     -0.00000
     19       6.7569     -0.00000
     20      10.4797      0.00000
     21      10.4797      0.00000
     22      10.6559      0.00000
     23      10.7660      0.00000
     24      10.7660      0.00000
     25      13.3510      0.00000
     26      13.3510      0.00000
     27      14.1022      0.00000
     28      18.0406      0.00000
     29      18.1932      0.00000
     30      18.1932      0.00000
     31      20.1008      0.00000
     32      20.9204      0.00000
     33      21.0025      0.00000
     34      21.0025      0.00000
     35      23.4007      0.00000
     36      23.4007      0.00000
     37      23.7259      0.00000
     38      26.8741      0.00000
     39      27.2007      0.00000
     40      27.2007      0.00000
     41      31.3381      0.00000
     42      31.3381      0.00000
     43      31.8236      0.00000
     44      33.0732      0.00000
     45      33.4288      0.00000
     46      33.4290      0.00000

 k-point   157 :       0.4615    0.4615    0.4615
  band No.  band energies     occupation 
      1     -28.9767      2.00000
      2     -13.0097      2.00000
      3     -12.9593      2.00000
      4     -12.9593      2.00000
      5     -11.3920      2.00000
      6     -11.3920      2.00000
      7     -11.3520      2.00000
      8      -1.8179      2.00000
      9      -1.1150      2.00000
     10      -1.1150      2.00000
     11      -0.5714      2.00000
     12      -0.5333      2.00000
     13      -0.5333      2.00000
     14       3.3167      2.00000
     15       3.3167      2.00000
     16       3.3464      2.00000
     17       6.7731     -0.00000
     18       6.7769     -0.00000
     19       6.7769     -0.00000
     20      10.5118      0.00000
     21      10.5118      0.00000
     22      10.6040      0.00000
     23      10.7199      0.00000
     24      10.7199      0.00000
     25      13.3869      0.00000
     26      13.3869      0.00000
     27      14.0551      0.00000
     28      18.0873      0.00000
     29      18.1715      0.00000
     30      18.1715      0.00000
     31      20.1826      0.00000
     32      20.9363      0.00000
     33      20.9839      0.00000
     34      20.9839      0.00000
     35      23.4894      0.00000
     36      23.4894      0.00000
     37      23.6855      0.00000
     38      26.7933      0.00000
     39      26.9860      0.00000
     40      26.9860      0.00000
     41      31.6182      0.00000
     42      31.6182      0.00000
     43      31.9553      0.00000
     44      33.0388      0.00000
     45      33.3066      0.00000
     46      33.3068      0.00000

 k-point   158 :       0.4744    0.4744    0.4744
  band No.  band energies     occupation 
      1     -28.9762      2.00000
      2     -12.9760      2.00000
      3     -12.9529      2.00000
      4     -12.9529      2.00000
      5     -11.4021      2.00000
      6     -11.4021      2.00000
      7     -11.3837      2.00000
      8      -1.8418      2.00000
      9      -1.1281      2.00000
     10      -1.1281      2.00000
     11      -0.5579      2.00000
     12      -0.5406      2.00000
     13      -0.5406      2.00000
     14       3.3441      2.00000
     15       3.3441      2.00000
     16       3.3575      2.00000
     17       6.7895     -0.00000
     18       6.7912     -0.00000
     19       6.7912     -0.00000
     20      10.5285      0.00000
     21      10.5285      0.00000
     22      10.5653      0.00000
     23      10.6922      0.00000
     24      10.6922      0.00000
     25      13.4128      0.00000
     26      13.4128      0.00000
     27      14.0213      0.00000
     28      18.1193      0.00000
     29      18.1562      0.00000
     30      18.1562      0.00000
     31      20.2473      0.00000
     32      20.9480      0.00000
     33      20.9696      0.00000
     34      20.9696      0.00000
     35      23.5643      0.00000
     36      23.5643      0.00000
     37      23.6563      0.00000
     38      26.7308      0.00000
     39      26.8199      0.00000
     40      26.8199      0.00000
     41      31.8740      0.00000
     42      31.8740      0.00000
     43      32.0609      0.00000
     44      33.0143      0.00000
     45      33.1729      0.00000
     46      33.1733      0.00000

 k-point   159 :       0.4872    0.4872    0.4872
  band No.  band energies     occupation 
      1     -28.9758      2.00000
      2     -12.9549      2.00000
      3     -12.9490      2.00000
      4     -12.9490      2.00000
      5     -11.4084      2.00000
      6     -11.4084      2.00000
      7     -11.4037      2.00000
      8      -1.8564      2.00000
      9      -1.1362      2.00000
     10      -1.1362      2.00000
     11      -0.5494      2.00000
     12      -0.5451      2.00000
     13      -0.5451      2.00000
     14       3.3607      2.00000
     15       3.3607      2.00000
     16       3.3641      2.00000
     17       6.7994     -0.00000
     18       6.7998     -0.00000
     19       6.7998     -0.00000
     20      10.5332      0.00000
     21      10.5332      0.00000
     22      10.5416      0.00000
     23      10.6804      0.00000
     24      10.6804      0.00000
     25      13.4284      0.00000
     26      13.4284      0.00000
     27      14.0010      0.00000
     28      18.1379      0.00000
     29      18.1471      0.00000
     30      18.1471      0.00000
     31      20.2888      0.00000
     32      20.9552      0.00000
     33      20.9606      0.00000
     34      20.9606      0.00000
     35      23.6149      0.00000
     36      23.6149      0.00000
     37      23.6387      0.00000
     38      26.6913      0.00000
     39      26.7141      0.00000
     40      26.7141      0.00000
     41      32.0736      0.00000
     42      32.0736      0.00000
     43      32.1310      0.00000
     44      32.9996      0.00000
     45      33.0505      0.00000
     46      33.0507      0.00000

 k-point   160 :       0.5000    0.5000    0.5000
  band No.  band energies     occupation 
      1     -28.9757      2.00000
      2     -12.9477      2.00000
      3     -12.9477      2.00000
      4     -12.9477      2.00000
      5     -11.4105      2.00000
      6     -11.4105      2.00000
      7     -11.4105      2.00000
      8      -1.8613      2.00000
      9      -1.1388      2.00000
     10      -1.1388      2.00000
     11      -0.5465      2.00000
     12      -0.5465      2.00000
     13      -0.5465      2.00000
     14       3.3664      2.00000
     15       3.3664      2.00000
     16       3.3664      2.00000
     17       6.8027     -0.00000
     18       6.8027     -0.00000
     19       6.8027     -0.00000
     20      10.5335      0.00000
     21      10.5335      0.00000
     22      10.5335      0.00000
     23      10.6777      0.00000
     24      10.6777      0.00000
     25      13.4336      0.00000
     26      13.4336      0.00000
     27      13.9942      0.00000
     28      18.1440      0.00000
     29      18.1440      0.00000
     30      18.1440      0.00000
     31      20.3031      0.00000
     32      20.9575      0.00000
     33      20.9575      0.00000
     34      20.9575      0.00000
     35      23.6329      0.00000
     36      23.6329      0.00000
     37      23.6329      0.00000
     38      26.6777      0.00000
     39      26.6777      0.00000
     40      26.6777      0.00000
     41      32.1558      0.00000
     42      32.1558      0.00000
     43      32.1558      0.00000
     44      32.9947      0.00000
     45      32.9947      0.00000
     46      32.9947      0.00000


--------------------------------------------------------------------------------------------------------


 soft charge-density along one line, spin component           1
         0         1         2         3         4         5         6         7         8         9
 total charge-density along one line
 
 pseudopotential strength for first ion, spin component:           1
-11.986  -2.442   0.000   0.000   0.000   0.000   0.000   0.000
 -2.442  -2.274   0.000   0.000   0.000   0.000   0.000   0.000
  0.000   0.000 -14.457  -0.000   0.000 -14.190  -0.000   0.000
  0.000   0.000  -0.000 -14.457  -0.000  -0.000 -14.190  -0.000
  0.000   0.000   0.000  -0.000 -14.457   0.000  -0.000 -14.190
  0.000   0.000 -14.190  -0.000   0.000 -13.925  -0.000   0.000
  0.000   0.000  -0.000 -14.190  -0.000  -0.000 -13.925  -0.000
  0.000   0.000   0.000  -0.000 -14.190   0.000  -0.000 -13.925
  0.000   0.000   0.000   0.000   0.000   0.000   0.000   0.000
 -0.000  -0.000   0.000   0.000   0.000   0.000   0.000   0.000
 -0.000  -0.000  -0.000   0.000  -0.000  -0.000   0.000  -0.000
 -0.000  -0.000   0.000   0.000   0.000   0.000   0.000   0.000
 -0.000  -0.000  -0.000   0.000   0.000  -0.000   0.000   0.000
  0.000   0.000   0.000   0.000   0.000   0.000   0.000   0.000
 -0.000  -0.000   0.000   0.000   0.000   0.000   0.000   0.000
 -0.000  -0.000  -0.000   0.000  -0.000  -0.000   0.000  -0.000
 -0.000  -0.000   0.000   0.000   0.000   0.000   0.000   0.000
 -0.000  -0.000  -0.000   0.000   0.000  -0.000   0.000   0.000
 total augmentation occupancy for first ion, spin component:           1
  2.000   0.000   0.000   0.000   0.000   0.000   0.000   0.000   0.000   0.000   0.000   0.000   0.000   0.000   0.000   0.000
  0.000   1.999   0.000   0.000   0.000   0.000   0.000   0.000   0.000   0.000   0.000   0.000   0.000   0.000   0.000   0.000
  0.000   0.000   2.000   0.000   0.000   0.000   0.000   0.000   0.000   0.000   0.000   0.000   0.000   0.000   0.000   0.000
  0.000   0.000   0.000   2.000   0.000   0.000   0.000   0.000   0.000   0.000   0.000   0.000   0.000   0.000   0.000   0.000
  0.000   0.000   0.000   0.000   2.000   0.000   0.000   0.000   0.000   0.000   0.000   0.000   0.000   0.000   0.000   0.000
  0.000   0.000   0.000   0.000   0.000   0.000   0.000   0.000   0.000   0.000   0.000   0.000   0.000   0.000   0.000   0.000
  0.000   0.000   0.000   0.000   0.000   0.000   0.000   0.000   0.000   0.000   0.000   0.000   0.000   0.000   0.000   0.000
  0.000   0.000   0.000   0.000   0.000   0.000   0.000   0.000   0.000   0.000   0.000   0.000   0.000   0.000   0.000   0.000
  0.000   0.000   0.000   0.000   0.000   0.000   0.000   0.000   0.000   0.000   0.000   0.000   0.000   0.000   0.000   0.000
  0.000   0.000   0.000   0.000   0.000   0.000   0.000   0.000   0.000   0.000   0.000   0.000   0.000   0.000   0.000   0.000
  0.000   0.000   0.000   0.000   0.000   0.000   0.000   0.000   0.000   0.000   0.000   0.000   0.000   0.000   0.000   0.000
  0.000   0.000   0.000   0.000   0.000   0.000   0.000   0.000   0.000   0.000   0.000   0.000   0.000   0.000   0.000   0.000
  0.000   0.000   0.000   0.000   0.000   0.000   0.000   0.000   0.000   0.000   0.000   0.000   0.000   0.000   0.000   0.000
  0.000   0.000   0.000   0.000   0.000   0.000   0.000   0.000   0.000   0.000   0.000   0.000   0.000   0.000   0.000   0.000
  0.000   0.000   0.000   0.000   0.000   0.000   0.000   0.000   0.000   0.000   0.000   0.000   0.000   0.000   0.000   0.000
  0.000   0.000   0.000   0.000   0.000   0.000   0.000   0.000   0.000   0.000   0.000   0.000   0.000   0.000   0.000   0.000
  0.000   0.000   0.000   0.000   0.000   0.000   0.000   0.000   0.000   0.000   0.000   0.000   0.000   0.000   0.000   0.000
  0.000   0.000   0.000   0.000   0.000   0.000   0.000   0.000   0.000   0.000   0.000   0.000   0.000   0.000   0.000   0.000


------------------------ aborting loop because EDIFF is reached ----------------------------------------


 


 total charge     
 
# of ion       s       p       d       tot
------------------------------------------
    1        1.996   5.831   0.190   8.017
    2        0.472   1.280   3.195   4.947
    3        1.525   3.800   0.000   5.324
    4        1.547   3.561   0.000   5.108
    5        1.565   3.343   0.000   4.908
--------------------------------------------------
tot          7.105  17.814   3.385  28.304
 
    CHARGE:  cpu time    0.9149: real time    0.9158
    FORLOC:  cpu time    0.0070: real time    0.0076
    FORNL :  cpu time    6.5490: real time    6.5498
    STRESS:  cpu time   10.0805: real time   10.0821
    FORCOR:  cpu time    0.0600: real time    0.0600
    FORHAR:  cpu time    0.0180: real time    0.0176
    OFIELD:  cpu time    0.0000: real time    0.0004

  FORCE on cell =-STRESS in cart. coord.  units (eV):
  Direction    XX          YY          ZZ          XY          YZ          ZX
  --------------------------------------------------------------------------------------
  Alpha Z   180.95686   180.95686   180.95686
  Ewald    -682.63392  -682.63392  -682.63392    -0.00000    -0.00000    -0.00000
  Hartree   145.94641   145.94641   145.94641    -0.00000    -0.00000    -0.00000
  E(xc)    -149.39664  -149.39664  -149.39664     0.00000     0.00000    -0.00000
  Local       6.38686     6.38686     6.38686     0.00000    -0.00000    -0.00000
  n-local  -111.96631  -110.20678  -107.40465    -0.35420    -0.17301    -0.17296
  augment    43.96140    43.96140    43.96140     0.00000     0.00000     0.00000
  Kinetic   558.80560   574.16634   577.90713    -1.58920    -0.85662    -0.85667
  Fock        0.00000     0.00000     0.00000     0.00000     0.00000     0.00000
  -------------------------------------------------------------------------------------
  Total       5.65474     5.65474     5.65474    -0.00000    -0.00000     0.00000
  in kB     159.19136   159.19136   159.19136    -0.00000    -0.00000     0.00000
  external pressure =      159.19 kB  Pullay stress =        0.00 kB


 VOLUME and BASIS-vectors are now :
 -----------------------------------------------------------------------------
  energy-cutoff  :      600.00
  volume of cell :       56.91
      direct lattice vectors                 reciprocal lattice vectors
     3.846520000  0.000000000  0.000000000     0.259975250  0.000000000  0.000000000
     0.000000000  3.846520000  0.000000000     0.000000000  0.259975250  0.000000000
     0.000000000  0.000000000  3.846520000     0.000000000  0.000000000  0.259975250

  length of vectors
     3.846520000  3.846520000  3.846520000     0.259975250  0.259975250  0.259975250


 FORCES acting on ions
    electron-ion (+dipol)            ewald-force                    non-local-force                 convergence-correction
 -----------------------------------------------------------------------------------------------
   -.455E-14 -.211E-14 -.104E-13   -.479E-14 -.313E-14 -.318E-14   0.000E+00 0.000E+00 0.000E+00   0.378E-13 0.245E-13 -.518E-13
   0.306E-13 -.846E-12 -.148E-12   -.289E-14 -.187E-14 0.208E-15   0.000E+00 0.000E+00 0.000E+00   -.164E-13 -.877E-14 -.218E-13
   0.163E-12 -.146E-11 -.143E-11   0.406E-14 -.102E-14 0.290E-15   0.000E+00 0.000E+00 0.000E+00   -.590E-13 -.158E-13 0.423E-13
   0.162E-12 -.151E-13 -.204E-11   0.190E-14 0.339E-14 0.147E-14   0.000E+00 0.000E+00 0.000E+00   -.344E-13 0.185E-13 0.308E-13
   -.102E-13 0.171E-12 0.151E-12   0.166E-14 0.231E-14 0.145E-14   0.000E+00 0.000E+00 0.000E+00   0.170E-13 -.748E-13 -.431E-13
 -----------------------------------------------------------------------------------------------
   0.341E-12 -.215E-11 -.347E-11   -.550E-16 -.318E-15 0.244E-15   0.000E+00 0.000E+00 0.000E+00   -.551E-13 -.563E-13 -.435E-13
 
 
 POSITION                                       TOTAL-FORCE (eV/Angst)
 -----------------------------------------------------------------------------------
      0.00000      0.00000      0.00000         0.000000      0.000000      0.000000
      1.92326      1.92326      1.92326         0.000000      0.000000      0.000000
      1.92326      1.92326      0.00000         0.000000      0.000000      0.000000
      1.92326      0.00000      1.92326         0.000000      0.000000      0.000000
      0.00000      1.92326      1.92326         0.000000      0.000000      0.000000
 -----------------------------------------------------------------------------------
    total drift:                                0.000000     -0.000000     -0.000000


--------------------------------------------------------------------------------------------------------



  FREE ENERGIE OF THE ION-ELECTRON SYSTEM (eV)
  ---------------------------------------------------
  free  energy   TOTEN  =       -37.80950887 eV

  energy  without entropy=      -37.79908062  energy(sigma->0) =      -37.80603279
 


--------------------------------------------------------------------------------------------------------


    POTLOK:  cpu time    0.1360: real time    0.1357


--------------------------------------------------------------------------------------------------------


 writing wavefunctions
     LOOP+:  cpu time  136.8702: real time  136.9468
    4ORBIT:  cpu time    0.0000: real time    0.0000
 


 total charge     
 
# of ion       s       p       d       tot
------------------------------------------
    1        1.996   5.831   0.190   8.017
    2        0.472   1.280   3.195   4.947
    3        1.525   3.800   0.000   5.324
    4        1.547   3.561   0.000   5.108
    5        1.565   3.343   0.000   4.908
--------------------------------------------------
tot          7.105  17.814   3.385  28.304
 

 total amount of memory used by VASP MPI-rank0   423295. kBytes
=======================================================================

   base      :      30000. kBytes
   nonl-proj :     133902. kBytes
   fftplans  :      16524. kBytes
   grid      :       7861. kBytes
   one-center:         77. kBytes
   wavefun   :     234931. kBytes
 
  
  
 General timing and accounting informations for this job:
 ========================================================
  
                  Total CPU time used (sec):      140.509
                            User time (sec):      139.642
                          System time (sec):        0.867
                         Elapsed time (sec):      140.641
  
                   Maximum memory used (kb):      491440.
                   Average memory used (kb):           0.
  
                          Minor page faults:        18814
                          Major page faults:            0
                 Voluntary context switches:         7454
