 vasp.5.4.4.18Apr17-6-g9f103f2a35 (build Dec 15 2019 17:04:58) complex          
  
 executed on             LinuxIFC date 2020.02.14  17:10:30
 running on    4 total cores
 distrk:  each k-point on    4 cores,    1 groups
 distr:  one band on NCORES_PER_BAND=   1 cores,    4 groups


--------------------------------------------------------------------------------------------------------


 INCAR:
 POTCAR:    PAW Sr_sv 10Feb1998                   
 POTCAR:    PAW V 07Aug2001                       
 POTCAR:    PAW O 22Mar2012                       
 POTCAR:    PAW Sr_sv 10Feb1998                   
   VRHFIN =Sr: 3s3p4s                                                           
   LEXCH  = CA                                                                  
   EATOM  =   845.5689 eV,   62.1476 Ry                                         
                                                                                
   TITEL  = PAW Sr_sv 10Feb1998                                                 
   LULTRA =        F    use ultrasoft PP ?                                      
   IUNSCR =        1    unscreen: 0-lin 1-nonlin 2-no                           
   RPACOR =    2.200    partial core radius                                     
   POMASS =   87.620; ZVAL   =   10.000    mass and valenz                      
   RCORE  =    2.500    outmost cutoff radius                                   
   RWIGS  =    4.040; RWIGS  =    2.138    wigner-seitz radius (au A)           
   ENMAX  =  226.327; ENMIN  =  169.745 eV                                      
   RCLOC  =    2.201    cutoff for local pot                                    
   LCOR   =        T    correct aug charges                                     
   LPAW   =        T    paw PP                                                  
   EAUG   =  366.804                                                            
   DEXC   =    0.000                                                            
   RMAX   =    2.547    core radius for proj-oper                               
   RAUG   =    1.300    factor for augmentation sphere                          
   RDEP   =    2.562    radius for radial grids                                 
   RDEPT  =    2.145    core radius for aug-charge                              
                                                                                
   Atomic configuration                                                         
   10 entries                                                                   
     n  l   j            E        occ.                                          
     1  0  0.50    -15851.8828   2.0000                                         
     2  0  0.50     -2148.9480   2.0000                                         
     2  1  1.50     -1912.9353   6.0000                                         
     3  0  0.50      -331.8462   2.0000                                         
     3  1  1.50      -255.3856   6.0000                                         
     3  2  2.50      -128.2784  10.0000                                         
     4  0  0.50       -40.8303   2.0000                                         
     5  0  0.50        -3.6422   1.9990                                         
     4  1  1.50       -22.8493   6.0000                                         
     4  2  1.50        -1.4198   0.0010                                         
   Description                                                                  
     l       E           TYP  RCUT    TYP  RCUT                                 
     0    -40.8303494     23  2.500                                             
     0     -3.6421860     23  2.500                                             
     1    -22.8492718     23  2.500                                             
     1    -24.2098544     23  2.500                                             
     2     -1.4197899     23  2.500                                             
     2      0.0045700     23  2.500                                             
  local pseudopotential read in
  partial core-charges read in
  partial kinetic energy density read in
  atomic valenz-charges read in
  non local Contribution for L=           0  read in
    real space projection operators read in
  non local Contribution for L=           0  read in
    real space projection operators read in
  non local Contribution for L=           1  read in
    real space projection operators read in
  non local Contribution for L=           1  read in
    real space projection operators read in
  non local Contribution for L=           2  read in
    real space projection operators read in
  non local Contribution for L=           2  read in
    real space projection operators read in
    PAW grid and wavefunctions read in
 
   number of l-projection  operators is LMAX  =           6
   number of lm-projection operators is LMMAX =          18
 
 POTCAR:    PAW V 07Aug2001                       
   VRHFIN =V: d4 s1                                                             
   LEXCH  = CA                                                                  
   EATOM  =   172.4520 eV,   12.6749 Ry                                         
                                                                                
   TITEL  = PAW V 07Aug2001                                                     
   LULTRA =        F    use ultrasoft PP ?                                      
   IUNSCR =        1    unscreen: 0-lin 1-nonlin 2-no                           
   RPACOR =    2.000    partial core radius                                     
   POMASS =   50.941; ZVAL   =    5.000    mass and valenz                      
   RCORE  =    2.700    outmost cutoff radius                                   
   RWIGS  =    2.500; RWIGS  =    1.323    wigner-seitz radius (au A)           
   ENMAX  =  192.706; ENMIN  =  144.529 eV                                      
   RCLOC  =    1.779    cutoff for local pot                                    
   LCOR   =        T    correct aug charges                                     
   LPAW   =        T    paw PP                                                  
   EAUG   =  358.662                                                            
   DEXC   =    0.000                                                            
   RMAX   =    2.768    core radius for proj-oper                               
   RAUG   =    1.300    factor for augmentation sphere                          
   RDEP   =    2.762    radius for radial grids                                 
   RDEPT  =    2.240    core radius for aug-charge                              
                                                                                
   Atomic configuration                                                         
    9 entries                                                                   
     n  l   j            E        occ.                                          
     1  0  0.50     -5334.6266   2.0000                                         
     2  0  0.50      -595.8619   2.0000                                         
     2  1  1.50      -498.2253   6.0000                                         
     3  0  0.50       -66.0397   2.0000                                         
     3  1  1.50       -40.3979   6.0000                                         
     3  2  2.50        -2.6339   4.0000                                         
     4  0  0.50        -4.0392   1.0000                                         
     4  1  0.50        -4.0817   0.0000                                         
     4  3  2.50        -1.3606   0.0000                                         
   Description                                                                  
     l       E           TYP  RCUT    TYP  RCUT                                 
     2     -2.6338511     23  2.700                                             
     2     -3.9944337     23  2.700                                             
     0     -4.0392463     23  2.700                                             
     0     27.2116520     23  2.700                                             
     1     -4.0817478     23  2.700                                             
     1     27.2116520     23  2.700                                             
  local pseudopotential read in
  partial core-charges read in
  partial kinetic energy density read in
  atomic valenz-charges read in
  non local Contribution for L=           2  read in
    real space projection operators read in
  non local Contribution for L=           2  read in
    real space projection operators read in
  non local Contribution for L=           0  read in
    real space projection operators read in
  non local Contribution for L=           0  read in
    real space projection operators read in
  non local Contribution for L=           1  read in
    real space projection operators read in
  non local Contribution for L=           1  read in
    real space projection operators read in
    PAW grid and wavefunctions read in
 
   number of l-projection  operators is LMAX  =           6
   number of lm-projection operators is LMMAX =          18
 
 POTCAR:    PAW O 22Mar2012                       
   VRHFIN =O: s2p4                                                              
   LEXCH  = CA                                                                  
   EATOM  =   431.4380 eV,   31.7098 Ry                                         
                                                                                
   TITEL  = PAW O 22Mar2012                                                     
   LULTRA =        F    use ultrasoft PP ?                                      
   IUNSCR =        1    unscreen: 0-lin 1-nonlin 2-no                           
   RPACOR =    1.200    partial core radius                                     
   POMASS =   16.000; ZVAL   =    6.000    mass and valenz                      
   RCORE  =    1.520    outmost cutoff radius                                   
   RWIGS  =    1.550; RWIGS  =    0.820    wigner-seitz radius (au A)           
   ENMAX  =  400.000; ENMIN  =  300.000 eV                                      
   ICORE  =        2    local potential                                         
   LCOR   =        T    correct aug charges                                     
   LPAW   =        T    paw PP                                                  
   EAUG   =  605.392                                                            
   DEXC   =    0.000                                                            
   RMAX   =    1.553    core radius for proj-oper                               
   RAUG   =    1.300    factor for augmentation sphere                          
   RDEP   =    1.550    radius for radial grids                                 
   RDEPT  =    1.329    core radius for aug-charge                              
                                                                                
   Atomic configuration                                                         
    4 entries                                                                   
     n  l   j            E        occ.                                          
     1  0  0.50      -510.4605   2.0000                                         
     2  0  0.50       -23.7367   2.0000                                         
     2  1  0.50        -9.1995   4.0000                                         
     3  2  1.50        -9.5241   0.0000                                         
   Description                                                                  
     l       E           TYP  RCUT    TYP  RCUT                                 
     0    -23.7366993     23  1.200                                             
     0     -9.5240782     23  1.200                                             
     1     -9.1994509     23  1.520                                             
     1      8.1634956     23  1.520                                             
     2     -9.5240782      7  1.500                                             
  local pseudopotential read in
  partial core-charges read in
  partial kinetic energy density read in
  kinetic energy density of atom read in
  atomic valenz-charges read in
  non local Contribution for L=           0  read in
    real space projection operators read in
  non local Contribution for L=           0  read in
    real space projection operators read in
  non local Contribution for L=           1  read in
    real space projection operators read in
  non local Contribution for L=           1  read in
    real space projection operators read in
    PAW grid and wavefunctions read in
 
   number of l-projection  operators is LMAX  =           4
   number of lm-projection operators is LMMAX =           8
 

 ----------------------------------------------------------------------------- 
|                                                                             |
|  ADVICE TO THIS USER RUNNING 'VASP/VAMP'   (HEAR YOUR MASTER'S VOICE ...):  |
|                                                                             |
|      You enforced a specific xc-type in the INCAR file,                     |
|      a different type was found on the POTCAR file                          |
|          I HOPE YOU KNOW, WHAT YOU ARE  DOING                               |
|                                                                             |
 ----------------------------------------------------------------------------- 

  PAW Sr_sv 10Feb1998                   :
 energy of atom  1       EATOM= -845.5689
 kinetic energy error for atom=    0.0006 (will be added to EATOM!!)
  PAW V 07Aug2001                       :
 energy of atom  2       EATOM= -172.4520
 kinetic energy error for atom=    0.0002 (will be added to EATOM!!)
  PAW O 22Mar2012                       :
 energy of atom  3       EATOM= -431.4380
 kinetic energy error for atom=    0.0165 (will be added to EATOM!!)
 
 
 POSCAR: Sr V O                                  
  positions in direct lattice
  No initial velocities read in
 exchange correlation table for  LEXCH =       14
   RHO(1)=    0.500       N(1)  =     2000
   RHO(2)=  100.500       N(2)  =     4000
 


--------------------------------------------------------------------------------------------------------


 ion  position               nearest neighbor table
   1  0.000  0.000  0.000-   3 2.72   4 2.72   5 2.72   4 2.72   5 2.72   3 2.72   5 2.72   5 2.72
                             3 2.72   4 2.72   4 2.72   3 2.72   2 3.33   2 3.33   2 3.33   2 3.33
   2  0.500  0.500  0.500-   3 1.92   4 1.92   5 1.92   3 1.92   4 1.92   5 1.92   1 3.33   1 3.33
                             1 3.33   1 3.33   1 3.33   1 3.33   1 3.33   1 3.33
   3  0.500  0.500  0.000-   2 1.92   2 1.92   1 2.72   1 2.72   1 2.72   1 2.72
   4  0.500  0.000  0.500-   2 1.92   2 1.92   1 2.72   1 2.72   1 2.72   1 2.72
   5  0.000  0.500  0.500-   2 1.92   2 1.92   1 2.72   1 2.72   1 2.72   1 2.72
 
  LATTYP: Found a simple cubic cell.
 ALAT       =     3.8465200000
  
  Lattice vectors:
  
 A1 = (   3.8465200000,   0.0000000000,   0.0000000000)
 A2 = (   0.0000000000,   3.8465200000,   0.0000000000)
 A3 = (   0.0000000000,   0.0000000000,   3.8465200000)


Analysis of symmetry for initial positions (statically):
=====================================================================
 Subroutine PRICEL returns:
 Original cell was already a primitive cell.
 

 Routine SETGRP: Setting up the symmetry group for a 
 simple cubic supercell.


 Subroutine GETGRP returns: Found 48 space group operations
 (whereof 48 operations were pure point group operations)
 out of a pool of 48 trial point group operations.


The static configuration has the point symmetry O_h .


Analysis of symmetry for dynamics (positions and initial velocities):
=====================================================================
 Subroutine PRICEL returns:
 Original cell was already a primitive cell.
 

 Routine SETGRP: Setting up the symmetry group for a 
 simple cubic supercell.


 Subroutine GETGRP returns: Found 48 space group operations
 (whereof 48 operations were pure point group operations)
 out of a pool of 48 trial point group operations.


The dynamic configuration has the point symmetry O_h .


 Subroutine INISYM returns: Found 48 space group operations
 (whereof 48 operations are pure point group operations),
 and found     1 'primitive' translations

 
 
 KPOINTS: CUB (simple cubic) G-X-M-G-R-X M-R      
  interpolating k-points between supplied coordinates
  k-points in reciprocal lattice
Space group operators:
 irot       det(A)        alpha          n_x          n_y          n_z        tau_x        tau_y        tau_z
    1     1.000000     0.000000     1.000000     0.000000     0.000000     0.000000     0.000000     0.000000
    2    -1.000000     0.000000     1.000000     0.000000     0.000000     0.000000     0.000000     0.000000
    3     1.000000   120.000000    -0.577350    -0.577350    -0.577350     0.000000     0.000000     0.000000
    4    -1.000000   120.000000    -0.577350    -0.577350    -0.577350     0.000000     0.000000     0.000000
    5     1.000000   120.000000     0.577350     0.577350     0.577350     0.000000     0.000000     0.000000
    6    -1.000000   120.000000     0.577350     0.577350     0.577350     0.000000     0.000000     0.000000
    7     1.000000    90.000000     0.000000     0.000000    -1.000000     0.000000     0.000000     0.000000
    8    -1.000000    90.000000     0.000000     0.000000    -1.000000     0.000000     0.000000     0.000000
    9     1.000000   180.000000     0.000000     0.707107     0.707107     0.000000     0.000000     0.000000
   10    -1.000000   180.000000     0.000000     0.707107     0.707107     0.000000     0.000000     0.000000
   11     1.000000    90.000000     0.000000     1.000000     0.000000     0.000000     0.000000     0.000000
   12    -1.000000    90.000000     0.000000     1.000000     0.000000     0.000000     0.000000     0.000000
   13     1.000000   180.000000     0.000000     0.000000     1.000000     0.000000     0.000000     0.000000
   14    -1.000000   180.000000     0.000000     0.000000     1.000000     0.000000     0.000000     0.000000
   15     1.000000   120.000000    -0.577350     0.577350     0.577350     0.000000     0.000000     0.000000
   16    -1.000000   120.000000    -0.577350     0.577350     0.577350     0.000000     0.000000     0.000000
   17     1.000000   120.000000    -0.577350     0.577350    -0.577350     0.000000     0.000000     0.000000
   18    -1.000000   120.000000    -0.577350     0.577350    -0.577350     0.000000     0.000000     0.000000
   19     1.000000    90.000000     0.000000     0.000000     1.000000     0.000000     0.000000     0.000000
   20    -1.000000    90.000000     0.000000     0.000000     1.000000     0.000000     0.000000     0.000000
   21     1.000000    90.000000    -1.000000     0.000000     0.000000     0.000000     0.000000     0.000000
   22    -1.000000    90.000000    -1.000000     0.000000     0.000000     0.000000     0.000000     0.000000
   23     1.000000   180.000000     0.707107     0.000000     0.707107     0.000000     0.000000     0.000000
   24    -1.000000   180.000000     0.707107     0.000000     0.707107     0.000000     0.000000     0.000000
   25     1.000000   120.000000     0.577350    -0.577350     0.577350     0.000000     0.000000     0.000000
   26    -1.000000   120.000000     0.577350    -0.577350     0.577350     0.000000     0.000000     0.000000
   27     1.000000   120.000000    -0.577350    -0.577350     0.577350     0.000000     0.000000     0.000000
   28    -1.000000   120.000000    -0.577350    -0.577350     0.577350     0.000000     0.000000     0.000000
   29     1.000000   180.000000     1.000000     0.000000     0.000000     0.000000     0.000000     0.000000
   30    -1.000000   180.000000     1.000000     0.000000     0.000000     0.000000     0.000000     0.000000
   31     1.000000    90.000000     0.000000    -1.000000     0.000000     0.000000     0.000000     0.000000
   32    -1.000000    90.000000     0.000000    -1.000000     0.000000     0.000000     0.000000     0.000000
   33     1.000000   180.000000     0.707107     0.707107     0.000000     0.000000     0.000000     0.000000
   34    -1.000000   180.000000     0.707107     0.707107     0.000000     0.000000     0.000000     0.000000
   35     1.000000    90.000000     1.000000     0.000000     0.000000     0.000000     0.000000     0.000000
   36    -1.000000    90.000000     1.000000     0.000000     0.000000     0.000000     0.000000     0.000000
   37     1.000000   120.000000     0.577350    -0.577350    -0.577350     0.000000     0.000000     0.000000
   38    -1.000000   120.000000     0.577350    -0.577350    -0.577350     0.000000     0.000000     0.000000
   39     1.000000   180.000000     0.000000     1.000000     0.000000     0.000000     0.000000     0.000000
   40    -1.000000   180.000000     0.000000     1.000000     0.000000     0.000000     0.000000     0.000000
   41     1.000000   120.000000     0.577350     0.577350    -0.577350     0.000000     0.000000     0.000000
   42    -1.000000   120.000000     0.577350     0.577350    -0.577350     0.000000     0.000000     0.000000
   43     1.000000   180.000000     0.000000    -0.707107     0.707107     0.000000     0.000000     0.000000
   44    -1.000000   180.000000     0.000000    -0.707107     0.707107     0.000000     0.000000     0.000000
   45     1.000000   180.000000     0.707107    -0.707107     0.000000     0.000000     0.000000     0.000000
   46    -1.000000   180.000000     0.707107    -0.707107     0.000000     0.000000     0.000000     0.000000
   47     1.000000   180.000000     0.707107     0.000000    -0.707107     0.000000     0.000000     0.000000
   48    -1.000000   180.000000     0.707107     0.000000    -0.707107     0.000000     0.000000     0.000000

 ----------------------------------------------------------------------------- 
|                                                                             |
|           W    W    AA    RRRRR   N    N  II  N    N   GGGG   !!!           |
|           W    W   A  A   R    R  NN   N  II  NN   N  G    G  !!!           |
|           W    W  A    A  R    R  N N  N  II  N N  N  G       !!!           |
|           W WW W  AAAAAA  RRRRR   N  N N  II  N  N N  G  GGG   !            |
|           WW  WW  A    A  R   R   N   NN  II  N   NN  G    G                |
|           W    W  A    A  R    R  N    N  II  N    N   GGGG   !!!           |
|                                                                             |
|      The number of bands has been changed from the values supplied          |
|      in the INCAR file. This is a result of running the parallel version.   |
|      The orbitals not found in the WAVECAR file will be initialized with    |
|      random numbers, which is usually adequate. For correlated              |
|      calculations, however, you should redo the groundstate calculation.    |
|      I found NBANDS    =       46  now  NBANDS  =      48                   |
|                                                                             |
 ----------------------------------------------------------------------------- 



--------------------------------------------------------------------------------------------------------




 Dimension of arrays:
   k-points           NKPTS =    200   k-points in BZ     NKDIM =    200   number of bands    NBANDS=     48
   number of dos      NEDOS =    301   number of ions     NIONS =      5
   non local maximal  LDIM  =      6   non local SUM 2l+1 LMDIM =     18
   total plane-waves  NPLWV =  13824
   max r-space proj   IRMAX =      1   max aug-charges    IRDMAX= 118030
   dimension x,y,z NGX =    24 NGY =   24 NGZ =   24
   dimension x,y,z NGXF=    48 NGYF=   48 NGZF=   48
   support grid    NGXF=    96 NGYF=   96 NGZF=   96
   ions per type =               1   1   3
   NGX,Y,Z   is equivalent  to a cutoff of  10.37, 10.37, 10.37 a.u.
   NGXF,Y,Z  is equivalent  to a cutoff of  20.75, 20.75, 20.75 a.u.

 SYSTEM =  SrVO3 	                                 
 POSCAR =  Sr V O                                  

 Startparameter for this run:
   NWRITE =      2    write-flag & timer
   PREC   = normal    normal or accurate (medium, high low for compatibility)
   ISTART =      1    job   : 0-new  1-cont  2-samecut
   ICHARG =     11    charge: 1-file 2-atom 10-const
   ISPIN  =      1    spin polarized calculation?
   LNONCOLLINEAR =      F non collinear calculations
   LSORBIT =      F    spin-orbit coupling
   INIWAV =      1    electr: 0-lowe 1-rand  2-diag
   LASPH  =      F    aspherical Exc in radial PAW
   METAGGA=      F    non-selfconsistent MetaGGA calc.

 Electronic Relaxation 1
   ENCUT  =  600.0 eV  44.10 Ry    6.64 a.u.   7.68  7.68  7.68*2*pi/ulx,y,z
   ENINI  =  600.0     initial cutoff
   ENAUG  =  605.4 eV  augmentation charge cutoff
   NELM   =     60;   NELMIN=  2; NELMDL=  0     # of ELM steps 
   EDIFF  = 0.1E-03   stopping-criterion for ELM
   LREAL  =      F    real-space projection
   NLSPLINE    = F    spline interpolate recip. space projectors
   LCOMPAT=      F    compatible to vasp.4.4
   GGA_COMPAT  = T    GGA compatible to vasp.4.4-vasp.4.6
   LMAXPAW     = -100 max onsite density
   LMAXMIX     =    4 max onsite mixed and CHGCAR
   VOSKOWN=      0    Vosko Wilk Nusair interpolation
   ROPT   =    0.00000   0.00000   0.00000
 Ionic relaxation
   EDIFFG = 0.1E-02   stopping-criterion for IOM
   NSW    =      0    number of steps for IOM
   NBLOCK =      1;   KBLOCK =      1    inner block; outer block 
   IBRION =     -1    ionic relax: 0-MD 1-quasi-New 2-CG
   NFREE  =      0    steps in history (QN), initial steepest desc. (CG)
   ISIF   =      2    stress and relaxation
   IWAVPR =     10    prediction:  0-non 1-charg 2-wave 3-comb
   ISYM   =      2    0-nonsym 1-usesym 2-fastsym
   LCORR  =      T    Harris-Foulkes like correction to forces

   POTIM  = 0.5000    time-step for ionic-motion
   TEIN   =    0.0    initial temperature
   TEBEG  =    0.0;   TEEND  =   0.0 temperature during run
   SMASS  =  -3.00    Nose mass-parameter (am)
   estimated Nose-frequenzy (Omega)   =  0.10E-29 period in steps =****** mass=  -0.338E-27a.u.
   SCALEE = 1.0000    scale energy and forces
   NPACO  =    256;   APACO  = 16.0  distance and # of slots for P.C.
   PSTRESS=    0.0 pullay stress

  Mass of Ions in am
   POMASS =  87.62 50.94 16.00
  Ionic Valenz
   ZVAL   =  10.00  5.00  6.00
  Atomic Wigner-Seitz radii
   RWIGS  =  -1.00 -1.00 -1.00
  virtual crystal weights 
   VCA    =   1.00  1.00  1.00
   NELECT =      33.0000    total number of electrons
   NUPDOWN=      -1.0000    fix difference up-down

 DOS related values:
   EMIN   =  10.00;   EMAX   =-10.00  energy-range for DOS
   EFERMI =   0.00
   ISMEAR =     0;   SIGMA  =   0.20  broadening in eV -4-tet -1-fermi 0-gaus

 Electronic relaxation 2 (details)
   IALGO  =     48    algorithm
   LDIAG  =      T    sub-space diagonalisation (order eigenvalues)
   LSUBROT=      F    optimize rotation matrix (better conditioning)
   TURBO    =      0    0=normal 1=particle mesh
   IRESTART =      0    0=no restart 2=restart with 2 vectors
   NREBOOT  =      0    no. of reboots
   NMIN     =      0    reboot dimension
   EREF     =   0.00    reference energy to select bands
   IMIX   =      4    mixing-type and parameters
     AMIX     =   0.40;   BMIX     =  1.00
     AMIX_MAG =   1.60;   BMIX_MAG =  1.00
     AMIN     =   0.10
     WC   =   100.;   INIMIX=   1;  MIXPRE=   1;  MAXMIX= -45

 Intra band minimization:
   WEIMIN = 0.0000     energy-eigenvalue tresh-hold
   EBREAK =  0.52E-06  absolut break condition
   DEPER  =   0.30     relativ break condition  

   TIME   =   0.40     timestep for ELM

  volume/ion in A,a.u.               =      11.38        76.81
  Fermi-wavevector in a.u.,A,eV,Ry     =   1.365143  2.579746 25.356027  1.863615
  Thomas-Fermi vector in A             =   2.491397
 
 Write flags
   LWAVE        =      T    write WAVECAR
   LDOWNSAMPLE  =      F    k-point downsampling of WAVECAR
   LCHARG       =      T    write CHGCAR
   LVTOT        =      F    write LOCPOT, total local potential
   LVHAR        =      F    write LOCPOT, Hartree potential only
   LELF         =      F    write electronic localiz. function (ELF)
   LORBIT       =     11    0 simple, 1 ext, 2 COOP (PROOUT), +10 PAW based schemes


 Dipole corrections
   LMONO  =      F    monopole corrections only (constant potential shift)
   LDIPOL =      F    correct potential (dipole corrections)
   IDIPOL =      0    1-x, 2-y, 3-z, 4-all directions 
   EPSILON=  1.0000000 bulk dielectric constant

 Exchange correlation treatment:
   GGA     =    PS    GGA type
   LEXCH   =    14    internal setting for exchange type
   VOSKOWN=      0    Vosko Wilk Nusair interpolation
   LHFCALC =     F    Hartree Fock is set to
   LHFONE  =     F    Hartree Fock one center treatment
   AEXX    =    0.0000 exact exchange contribution

 Linear response parameters
   LEPSILON=     F    determine dielectric tensor
   LRPA    =     F    only Hartree local field effects (RPA)
   LNABLA  =     F    use nabla operator in PAW spheres
   LVEL    =     F    velocity operator in full k-point grid
   LINTERFAST=   F  fast interpolation
   KINTER  =     0    interpolate to denser k-point grid
   CSHIFT  =0.1000    complex shift for real part using Kramers Kronig
   OMEGAMAX=  -1.0    maximum frequency
   DEG_THRESHOLD= 0.2000000E-02 threshold for treating states as degnerate
   RTIME   =   -0.100 relaxation time in fs
  (WPLASMAI=    0.000 imaginary part of plasma frequency in eV, 0.658/RTIME)
   DFIELD  = 0.0000000 0.0000000 0.0000000 field for delta impulse in time
 
 Orbital magnetization related:
   ORBITALMAG=     F  switch on orbital magnetization
   LCHIMAG   =     F  perturbation theory with respect to B field
   DQ        =  0.001000  dq finite difference perturbation B field
   LLRAUG    =     F  two centre corrections for induced B field



--------------------------------------------------------------------------------------------------------


 Static calculation
 charge density and potential remain constant during run
 non-spin polarized calculation
 RMM-DIIS sequential band-by-band
 perform sub-space diagonalisation
    before iterative eigenvector-optimisation
 no mixing
 using additional bands           31
 reciprocal scheme for non local part
 use partial core corrections
 calculate Harris-corrections to forces 
   (improved forces if not selfconsistent)
 use gradient corrections 
 WARNING: stress and forces are not correct
  (second derivative of E(xc) not defined)
 use of overlap-Matrix (Vanderbilt PP)
 Gauss-broadening in eV      SIGMA  =   0.20


--------------------------------------------------------------------------------------------------------


  energy-cutoff  :      600.00
  volume of cell :       56.91
      direct lattice vectors                 reciprocal lattice vectors
     3.846520000  0.000000000  0.000000000     0.259975250  0.000000000  0.000000000
     0.000000000  3.846520000  0.000000000     0.000000000  0.259975250  0.000000000
     0.000000000  0.000000000  3.846520000     0.000000000  0.000000000  0.259975250

  length of vectors
     3.846520000  3.846520000  3.846520000     0.259975250  0.259975250  0.259975250


 
 old parameters found on file WAVECAR:
  energy-cutoff  :      600.00
  volume of cell :       56.91
      direct lattice vectors                 reciprocal lattice vectors
     3.846520000  0.000000000  0.000000000     0.259975250  0.000000000  0.000000000
     0.000000000  3.846520000  0.000000000     0.000000000  0.259975250  0.000000000
     0.000000000  0.000000000  3.846520000     0.000000000  0.000000000  0.259975250

  length of vectors

 
 k-points in units of 2pi/SCALE and weight: CUB (simple cubic) G-X-M-G-R-X M-R      
   0.00000000  0.00000000  0.00000000       0.005
   0.00000000  0.01282051  0.00000000       0.005
   0.00000000  0.02564103  0.00000000       0.005
   0.00000000  0.03846154  0.00000000       0.005
   0.00000000  0.05128205  0.00000000       0.005
   0.00000000  0.06410256  0.00000000       0.005
   0.00000000  0.07692308  0.00000000       0.005
   0.00000000  0.08974359  0.00000000       0.005
   0.00000000  0.10256410  0.00000000       0.005
   0.00000000  0.11538462  0.00000000       0.005
   0.00000000  0.12820513  0.00000000       0.005
   0.00000000  0.14102564  0.00000000       0.005
   0.00000000  0.15384615  0.00000000       0.005
   0.00000000  0.16666667  0.00000000       0.005
   0.00000000  0.17948718  0.00000000       0.005
   0.00000000  0.19230769  0.00000000       0.005
   0.00000000  0.20512821  0.00000000       0.005
   0.00000000  0.21794872  0.00000000       0.005
   0.00000000  0.23076923  0.00000000       0.005
   0.00000000  0.24358974  0.00000000       0.005
   0.00000000  0.25641026  0.00000000       0.005
   0.00000000  0.26923077  0.00000000       0.005
   0.00000000  0.28205128  0.00000000       0.005
   0.00000000  0.29487179  0.00000000       0.005
   0.00000000  0.30769231  0.00000000       0.005
   0.00000000  0.32051282  0.00000000       0.005
   0.00000000  0.33333333  0.00000000       0.005
   0.00000000  0.34615385  0.00000000       0.005
   0.00000000  0.35897436  0.00000000       0.005
   0.00000000  0.37179487  0.00000000       0.005
   0.00000000  0.38461538  0.00000000       0.005
   0.00000000  0.39743590  0.00000000       0.005
   0.00000000  0.41025641  0.00000000       0.005
   0.00000000  0.42307692  0.00000000       0.005
   0.00000000  0.43589744  0.00000000       0.005
   0.00000000  0.44871795  0.00000000       0.005
   0.00000000  0.46153846  0.00000000       0.005
   0.00000000  0.47435897  0.00000000       0.005
   0.00000000  0.48717949  0.00000000       0.005
   0.00000000  0.50000000  0.00000000       0.005
   0.00000000  0.50000000  0.00000000       0.005
   0.01282051  0.50000000  0.00000000       0.005
   0.02564103  0.50000000  0.00000000       0.005
   0.03846154  0.50000000  0.00000000       0.005
   0.05128205  0.50000000  0.00000000       0.005
   0.06410256  0.50000000  0.00000000       0.005
   0.07692308  0.50000000  0.00000000       0.005
   0.08974359  0.50000000  0.00000000       0.005
   0.10256410  0.50000000  0.00000000       0.005
   0.11538462  0.50000000  0.00000000       0.005
   0.12820513  0.50000000  0.00000000       0.005
   0.14102564  0.50000000  0.00000000       0.005
   0.15384615  0.50000000  0.00000000       0.005
   0.16666667  0.50000000  0.00000000       0.005
   0.17948718  0.50000000  0.00000000       0.005
   0.19230769  0.50000000  0.00000000       0.005
   0.20512821  0.50000000  0.00000000       0.005
   0.21794872  0.50000000  0.00000000       0.005
   0.23076923  0.50000000  0.00000000       0.005
   0.24358974  0.50000000  0.00000000       0.005
   0.25641026  0.50000000  0.00000000       0.005
   0.26923077  0.50000000  0.00000000       0.005
   0.28205128  0.50000000  0.00000000       0.005
   0.29487179  0.50000000  0.00000000       0.005
   0.30769231  0.50000000  0.00000000       0.005
   0.32051282  0.50000000  0.00000000       0.005
   0.33333333  0.50000000  0.00000000       0.005
   0.34615385  0.50000000  0.00000000       0.005
   0.35897436  0.50000000  0.00000000       0.005
   0.37179487  0.50000000  0.00000000       0.005
   0.38461538  0.50000000  0.00000000       0.005
   0.39743590  0.50000000  0.00000000       0.005
   0.41025641  0.50000000  0.00000000       0.005
   0.42307692  0.50000000  0.00000000       0.005
   0.43589744  0.50000000  0.00000000       0.005
   0.44871795  0.50000000  0.00000000       0.005
   0.46153846  0.50000000  0.00000000       0.005
   0.47435897  0.50000000  0.00000000       0.005
   0.48717949  0.50000000  0.00000000       0.005
   0.50000000  0.50000000  0.00000000       0.005
   0.50000000  0.50000000  0.00000000       0.005
   0.48717949  0.48717949  0.00000000       0.005
   0.47435897  0.47435897  0.00000000       0.005
   0.46153846  0.46153846  0.00000000       0.005
   0.44871795  0.44871795  0.00000000       0.005
   0.43589744  0.43589744  0.00000000       0.005
   0.42307692  0.42307692  0.00000000       0.005
   0.41025641  0.41025641  0.00000000       0.005
   0.39743590  0.39743590  0.00000000       0.005
   0.38461538  0.38461538  0.00000000       0.005
   0.37179487  0.37179487  0.00000000       0.005
   0.35897436  0.35897436  0.00000000       0.005
   0.34615385  0.34615385  0.00000000       0.005
   0.33333333  0.33333333  0.00000000       0.005
   0.32051282  0.32051282  0.00000000       0.005
   0.30769231  0.30769231  0.00000000       0.005
   0.29487179  0.29487179  0.00000000       0.005
   0.28205128  0.28205128  0.00000000       0.005
   0.26923077  0.26923077  0.00000000       0.005
   0.25641026  0.25641026  0.00000000       0.005
   0.24358974  0.24358974  0.00000000       0.005
   0.23076923  0.23076923  0.00000000       0.005
   0.21794872  0.21794872  0.00000000       0.005
   0.20512821  0.20512821  0.00000000       0.005
   0.19230769  0.19230769  0.00000000       0.005
   0.17948718  0.17948718  0.00000000       0.005
   0.16666667  0.16666667  0.00000000       0.005
   0.15384615  0.15384615  0.00000000       0.005
   0.14102564  0.14102564  0.00000000       0.005
   0.12820513  0.12820513  0.00000000       0.005
   0.11538462  0.11538462  0.00000000       0.005
   0.10256410  0.10256410  0.00000000       0.005
   0.08974359  0.08974359  0.00000000       0.005
   0.07692308  0.07692308  0.00000000       0.005
   0.06410256  0.06410256  0.00000000       0.005
   0.05128205  0.05128205  0.00000000       0.005
   0.03846154  0.03846154  0.00000000       0.005
   0.02564103  0.02564103  0.00000000       0.005
   0.01282051  0.01282051  0.00000000       0.005
   0.00000000  0.00000000  0.00000000       0.005
   0.00000000  0.00000000  0.00000000       0.005
   0.01282051  0.01282051  0.01282051       0.005
   0.02564103  0.02564103  0.02564103       0.005
   0.03846154  0.03846154  0.03846154       0.005
   0.05128205  0.05128205  0.05128205       0.005
   0.06410256  0.06410256  0.06410256       0.005
   0.07692308  0.07692308  0.07692308       0.005
   0.08974359  0.08974359  0.08974359       0.005
   0.10256410  0.10256410  0.10256410       0.005
   0.11538462  0.11538462  0.11538462       0.005
   0.12820513  0.12820513  0.12820513       0.005
   0.14102564  0.14102564  0.14102564       0.005
   0.15384615  0.15384615  0.15384615       0.005
   0.16666667  0.16666667  0.16666667       0.005
   0.17948718  0.17948718  0.17948718       0.005
   0.19230769  0.19230769  0.19230769       0.005
   0.20512821  0.20512821  0.20512821       0.005
   0.21794872  0.21794872  0.21794872       0.005
   0.23076923  0.23076923  0.23076923       0.005
   0.24358974  0.24358974  0.24358974       0.005
   0.25641026  0.25641026  0.25641026       0.005
   0.26923077  0.26923077  0.26923077       0.005
   0.28205128  0.28205128  0.28205128       0.005
   0.29487179  0.29487179  0.29487179       0.005
   0.30769231  0.30769231  0.30769231       0.005
   0.32051282  0.32051282  0.32051282       0.005
   0.33333333  0.33333333  0.33333333       0.005
   0.34615385  0.34615385  0.34615385       0.005
   0.35897436  0.35897436  0.35897436       0.005
   0.37179487  0.37179487  0.37179487       0.005
   0.38461538  0.38461538  0.38461538       0.005
   0.39743590  0.39743590  0.39743590       0.005
   0.41025641  0.41025641  0.41025641       0.005
   0.42307692  0.42307692  0.42307692       0.005
   0.43589744  0.43589744  0.43589744       0.005
   0.44871795  0.44871795  0.44871795       0.005
   0.46153846  0.46153846  0.46153846       0.005
   0.47435897  0.47435897  0.47435897       0.005
   0.48717949  0.48717949  0.48717949       0.005
   0.50000000  0.50000000  0.50000000       0.005
   0.50000000  0.50000000  0.50000000       0.005
   0.48717949  0.50000000  0.48717949       0.005
   0.47435897  0.50000000  0.47435897       0.005
   0.46153846  0.50000000  0.46153846       0.005
   0.44871795  0.50000000  0.44871795       0.005
   0.43589744  0.50000000  0.43589744       0.005
   0.42307692  0.50000000  0.42307692       0.005
   0.41025641  0.50000000  0.41025641       0.005
   0.39743590  0.50000000  0.39743590       0.005
   0.38461538  0.50000000  0.38461538       0.005
   0.37179487  0.50000000  0.37179487       0.005
   0.35897436  0.50000000  0.35897436       0.005
   0.34615385  0.50000000  0.34615385       0.005
   0.33333333  0.50000000  0.33333333       0.005
   0.32051282  0.50000000  0.32051282       0.005
   0.30769231  0.50000000  0.30769231       0.005
   0.29487179  0.50000000  0.29487179       0.005
   0.28205128  0.50000000  0.28205128       0.005
   0.26923077  0.50000000  0.26923077       0.005
   0.25641026  0.50000000  0.25641026       0.005
   0.24358974  0.50000000  0.24358974       0.005
   0.23076923  0.50000000  0.23076923       0.005
   0.21794872  0.50000000  0.21794872       0.005
   0.20512821  0.50000000  0.20512821       0.005
   0.19230769  0.50000000  0.19230769       0.005
   0.17948718  0.50000000  0.17948718       0.005
   0.16666667  0.50000000  0.16666667       0.005
   0.15384615  0.50000000  0.15384615       0.005
   0.14102564  0.50000000  0.14102564       0.005
   0.12820513  0.50000000  0.12820513       0.005
   0.11538462  0.50000000  0.11538462       0.005
   0.10256410  0.50000000  0.10256410       0.005
   0.08974359  0.50000000  0.08974359       0.005
   0.07692308  0.50000000  0.07692308       0.005
   0.06410256  0.50000000  0.06410256       0.005
   0.05128205  0.50000000  0.05128205       0.005
   0.03846154  0.50000000  0.03846154       0.005
   0.02564103  0.50000000  0.02564103       0.005
   0.01282051  0.50000000  0.01282051       0.005
   0.00000000  0.50000000  0.00000000       0.005
 
 k-points in reciprocal lattice and weights: CUB (simple cubic) G-X-M-G-R-X M-R      
   0.00000000  0.00000000  0.00000000       0.005
   0.00000000  0.01282051  0.00000000       0.005
   0.00000000  0.02564103  0.00000000       0.005
   0.00000000  0.03846154  0.00000000       0.005
   0.00000000  0.05128205  0.00000000       0.005
   0.00000000  0.06410256  0.00000000       0.005
   0.00000000  0.07692308  0.00000000       0.005
   0.00000000  0.08974359  0.00000000       0.005
   0.00000000  0.10256410  0.00000000       0.005
   0.00000000  0.11538462  0.00000000       0.005
   0.00000000  0.12820513  0.00000000       0.005
   0.00000000  0.14102564  0.00000000       0.005
   0.00000000  0.15384615  0.00000000       0.005
   0.00000000  0.16666667  0.00000000       0.005
   0.00000000  0.17948718  0.00000000       0.005
   0.00000000  0.19230769  0.00000000       0.005
   0.00000000  0.20512821  0.00000000       0.005
   0.00000000  0.21794872  0.00000000       0.005
   0.00000000  0.23076923  0.00000000       0.005
   0.00000000  0.24358974  0.00000000       0.005
   0.00000000  0.25641026  0.00000000       0.005
   0.00000000  0.26923077  0.00000000       0.005
   0.00000000  0.28205128  0.00000000       0.005
   0.00000000  0.29487179  0.00000000       0.005
   0.00000000  0.30769231  0.00000000       0.005
   0.00000000  0.32051282  0.00000000       0.005
   0.00000000  0.33333333  0.00000000       0.005
   0.00000000  0.34615385  0.00000000       0.005
   0.00000000  0.35897436  0.00000000       0.005
   0.00000000  0.37179487  0.00000000       0.005
   0.00000000  0.38461538  0.00000000       0.005
   0.00000000  0.39743590  0.00000000       0.005
   0.00000000  0.41025641  0.00000000       0.005
   0.00000000  0.42307692  0.00000000       0.005
   0.00000000  0.43589744  0.00000000       0.005
   0.00000000  0.44871795  0.00000000       0.005
   0.00000000  0.46153846  0.00000000       0.005
   0.00000000  0.47435897  0.00000000       0.005
   0.00000000  0.48717949  0.00000000       0.005
   0.00000000  0.50000000  0.00000000       0.005
   0.00000000  0.50000000  0.00000000       0.005
   0.01282051  0.50000000  0.00000000       0.005
   0.02564103  0.50000000  0.00000000       0.005
   0.03846154  0.50000000  0.00000000       0.005
   0.05128205  0.50000000  0.00000000       0.005
   0.06410256  0.50000000  0.00000000       0.005
   0.07692308  0.50000000  0.00000000       0.005
   0.08974359  0.50000000  0.00000000       0.005
   0.10256410  0.50000000  0.00000000       0.005
   0.11538462  0.50000000  0.00000000       0.005
   0.12820513  0.50000000  0.00000000       0.005
   0.14102564  0.50000000  0.00000000       0.005
   0.15384615  0.50000000  0.00000000       0.005
   0.16666667  0.50000000  0.00000000       0.005
   0.17948718  0.50000000  0.00000000       0.005
   0.19230769  0.50000000  0.00000000       0.005
   0.20512821  0.50000000  0.00000000       0.005
   0.21794872  0.50000000  0.00000000       0.005
   0.23076923  0.50000000  0.00000000       0.005
   0.24358974  0.50000000  0.00000000       0.005
   0.25641026  0.50000000  0.00000000       0.005
   0.26923077  0.50000000  0.00000000       0.005
   0.28205128  0.50000000  0.00000000       0.005
   0.29487179  0.50000000  0.00000000       0.005
   0.30769231  0.50000000  0.00000000       0.005
   0.32051282  0.50000000  0.00000000       0.005
   0.33333333  0.50000000  0.00000000       0.005
   0.34615385  0.50000000  0.00000000       0.005
   0.35897436  0.50000000  0.00000000       0.005
   0.37179487  0.50000000  0.00000000       0.005
   0.38461538  0.50000000  0.00000000       0.005
   0.39743590  0.50000000  0.00000000       0.005
   0.41025641  0.50000000  0.00000000       0.005
   0.42307692  0.50000000  0.00000000       0.005
   0.43589744  0.50000000  0.00000000       0.005
   0.44871795  0.50000000  0.00000000       0.005
   0.46153846  0.50000000  0.00000000       0.005
   0.47435897  0.50000000  0.00000000       0.005
   0.48717949  0.50000000  0.00000000       0.005
   0.50000000  0.50000000  0.00000000       0.005
   0.50000000  0.50000000  0.00000000       0.005
   0.48717949  0.48717949  0.00000000       0.005
   0.47435897  0.47435897  0.00000000       0.005
   0.46153846  0.46153846  0.00000000       0.005
   0.44871795  0.44871795  0.00000000       0.005
   0.43589744  0.43589744  0.00000000       0.005
   0.42307692  0.42307692  0.00000000       0.005
   0.41025641  0.41025641  0.00000000       0.005
   0.39743590  0.39743590  0.00000000       0.005
   0.38461538  0.38461538  0.00000000       0.005
   0.37179487  0.37179487  0.00000000       0.005
   0.35897436  0.35897436  0.00000000       0.005
   0.34615385  0.34615385  0.00000000       0.005
   0.33333333  0.33333333  0.00000000       0.005
   0.32051282  0.32051282  0.00000000       0.005
   0.30769231  0.30769231  0.00000000       0.005
   0.29487179  0.29487179  0.00000000       0.005
   0.28205128  0.28205128  0.00000000       0.005
   0.26923077  0.26923077  0.00000000       0.005
   0.25641026  0.25641026  0.00000000       0.005
   0.24358974  0.24358974  0.00000000       0.005
   0.23076923  0.23076923  0.00000000       0.005
   0.21794872  0.21794872  0.00000000       0.005
   0.20512821  0.20512821  0.00000000       0.005
   0.19230769  0.19230769  0.00000000       0.005
   0.17948718  0.17948718  0.00000000       0.005
   0.16666667  0.16666667  0.00000000       0.005
   0.15384615  0.15384615  0.00000000       0.005
   0.14102564  0.14102564  0.00000000       0.005
   0.12820513  0.12820513  0.00000000       0.005
   0.11538462  0.11538462  0.00000000       0.005
   0.10256410  0.10256410  0.00000000       0.005
   0.08974359  0.08974359  0.00000000       0.005
   0.07692308  0.07692308  0.00000000       0.005
   0.06410256  0.06410256  0.00000000       0.005
   0.05128205  0.05128205  0.00000000       0.005
   0.03846154  0.03846154  0.00000000       0.005
   0.02564103  0.02564103  0.00000000       0.005
   0.01282051  0.01282051  0.00000000       0.005
   0.00000000  0.00000000  0.00000000       0.005
   0.00000000  0.00000000  0.00000000       0.005
   0.01282051  0.01282051  0.01282051       0.005
   0.02564103  0.02564103  0.02564103       0.005
   0.03846154  0.03846154  0.03846154       0.005
   0.05128205  0.05128205  0.05128205       0.005
   0.06410256  0.06410256  0.06410256       0.005
   0.07692308  0.07692308  0.07692308       0.005
   0.08974359  0.08974359  0.08974359       0.005
   0.10256410  0.10256410  0.10256410       0.005
   0.11538462  0.11538462  0.11538462       0.005
   0.12820513  0.12820513  0.12820513       0.005
   0.14102564  0.14102564  0.14102564       0.005
   0.15384615  0.15384615  0.15384615       0.005
   0.16666667  0.16666667  0.16666667       0.005
   0.17948718  0.17948718  0.17948718       0.005
   0.19230769  0.19230769  0.19230769       0.005
   0.20512821  0.20512821  0.20512821       0.005
   0.21794872  0.21794872  0.21794872       0.005
   0.23076923  0.23076923  0.23076923       0.005
   0.24358974  0.24358974  0.24358974       0.005
   0.25641026  0.25641026  0.25641026       0.005
   0.26923077  0.26923077  0.26923077       0.005
   0.28205128  0.28205128  0.28205128       0.005
   0.29487179  0.29487179  0.29487179       0.005
   0.30769231  0.30769231  0.30769231       0.005
   0.32051282  0.32051282  0.32051282       0.005
   0.33333333  0.33333333  0.33333333       0.005
   0.34615385  0.34615385  0.34615385       0.005
   0.35897436  0.35897436  0.35897436       0.005
   0.37179487  0.37179487  0.37179487       0.005
   0.38461538  0.38461538  0.38461538       0.005
   0.39743590  0.39743590  0.39743590       0.005
   0.41025641  0.41025641  0.41025641       0.005
   0.42307692  0.42307692  0.42307692       0.005
   0.43589744  0.43589744  0.43589744       0.005
   0.44871795  0.44871795  0.44871795       0.005
   0.46153846  0.46153846  0.46153846       0.005
   0.47435897  0.47435897  0.47435897       0.005
   0.48717949  0.48717949  0.48717949       0.005
   0.50000000  0.50000000  0.50000000       0.005
   0.50000000  0.50000000  0.50000000       0.005
   0.48717949  0.50000000  0.48717949       0.005
   0.47435897  0.50000000  0.47435897       0.005
   0.46153846  0.50000000  0.46153846       0.005
   0.44871795  0.50000000  0.44871795       0.005
   0.43589744  0.50000000  0.43589744       0.005
   0.42307692  0.50000000  0.42307692       0.005
   0.41025641  0.50000000  0.41025641       0.005
   0.39743590  0.50000000  0.39743590       0.005
   0.38461538  0.50000000  0.38461538       0.005
   0.37179487  0.50000000  0.37179487       0.005
   0.35897436  0.50000000  0.35897436       0.005
   0.34615385  0.50000000  0.34615385       0.005
   0.33333333  0.50000000  0.33333333       0.005
   0.32051282  0.50000000  0.32051282       0.005
   0.30769231  0.50000000  0.30769231       0.005
   0.29487179  0.50000000  0.29487179       0.005
   0.28205128  0.50000000  0.28205128       0.005
   0.26923077  0.50000000  0.26923077       0.005
   0.25641026  0.50000000  0.25641026       0.005
   0.24358974  0.50000000  0.24358974       0.005
   0.23076923  0.50000000  0.23076923       0.005
   0.21794872  0.50000000  0.21794872       0.005
   0.20512821  0.50000000  0.20512821       0.005
   0.19230769  0.50000000  0.19230769       0.005
   0.17948718  0.50000000  0.17948718       0.005
   0.16666667  0.50000000  0.16666667       0.005
   0.15384615  0.50000000  0.15384615       0.005
   0.14102564  0.50000000  0.14102564       0.005
   0.12820513  0.50000000  0.12820513       0.005
   0.11538462  0.50000000  0.11538462       0.005
   0.10256410  0.50000000  0.10256410       0.005
   0.08974359  0.50000000  0.08974359       0.005
   0.07692308  0.50000000  0.07692308       0.005
   0.06410256  0.50000000  0.06410256       0.005
   0.05128205  0.50000000  0.05128205       0.005
   0.03846154  0.50000000  0.03846154       0.005
   0.02564103  0.50000000  0.02564103       0.005
   0.01282051  0.50000000  0.01282051       0.005
   0.00000000  0.50000000  0.00000000       0.005
 
 position of ions in fractional coordinates (direct lattice) 
   0.00000000  0.00000000  0.00000000
   0.50000000  0.50000000  0.50000000
   0.50000000  0.50000000  0.00000000
   0.50000000  0.00000000  0.50000000
   0.00000000  0.50000000  0.50000000
 
 position of ions in cartesian coordinates  (Angst):
   0.00000000  0.00000000  0.00000000
   1.92326000  1.92326000  1.92326000
   1.92326000  1.92326000  0.00000000
   1.92326000  0.00000000  1.92326000
   0.00000000  1.92326000  1.92326000
 


--------------------------------------------------------------------------------------------------------


 k-point  1 :   0.0000 0.0000 0.0000  plane waves:    1935
 k-point  2 :   0.0000 0.0128 0.0000  plane waves:    1899
 k-point  3 :   0.0000 0.0256 0.0000  plane waves:    1899
 k-point  4 :   0.0000 0.0385 0.0000  plane waves:    1899
 k-point  5 :   0.0000 0.0513 0.0000  plane waves:    1899
 k-point  6 :   0.0000 0.0641 0.0000  plane waves:    1899
 k-point  7 :   0.0000 0.0769 0.0000  plane waves:    1895
 k-point  8 :   0.0000 0.0897 0.0000  plane waves:    1895
 k-point  9 :   0.0000 0.1026 0.0000  plane waves:    1895
 k-point 10 :   0.0000 0.1154 0.0000  plane waves:    1895
 k-point 11 :   0.0000 0.1282 0.0000  plane waves:    1895
 k-point 12 :   0.0000 0.1410 0.0000  plane waves:    1895
 k-point 13 :   0.0000 0.1538 0.0000  plane waves:    1891
 k-point 14 :   0.0000 0.1667 0.0000  plane waves:    1887
 k-point 15 :   0.0000 0.1795 0.0000  plane waves:    1899
 k-point 16 :   0.0000 0.1923 0.0000  plane waves:    1899
 k-point 17 :   0.0000 0.2051 0.0000  plane waves:    1899
 k-point 18 :   0.0000 0.2179 0.0000  plane waves:    1907
 k-point 19 :   0.0000 0.2308 0.0000  plane waves:    1907
 k-point 20 :   0.0000 0.2436 0.0000  plane waves:    1907
 k-point 21 :   0.0000 0.2564 0.0000  plane waves:    1907
 k-point 22 :   0.0000 0.2692 0.0000  plane waves:    1907
 k-point 23 :   0.0000 0.2821 0.0000  plane waves:    1907
 k-point 24 :   0.0000 0.2949 0.0000  plane waves:    1907
 k-point 25 :   0.0000 0.3077 0.0000  plane waves:    1915
 k-point 26 :   0.0000 0.3205 0.0000  plane waves:    1916
 k-point 27 :   0.0000 0.3333 0.0000  plane waves:    1916
 k-point 28 :   0.0000 0.3462 0.0000  plane waves:    1916
 k-point 29 :   0.0000 0.3590 0.0000  plane waves:    1916
 k-point 30 :   0.0000 0.3718 0.0000  plane waves:    1908
 k-point 31 :   0.0000 0.3846 0.0000  plane waves:    1912
 k-point 32 :   0.0000 0.3974 0.0000  plane waves:    1912
 k-point 33 :   0.0000 0.4103 0.0000  plane waves:    1908
 k-point 34 :   0.0000 0.4231 0.0000  plane waves:    1904
 k-point 35 :   0.0000 0.4359 0.0000  plane waves:    1904
 k-point 36 :   0.0000 0.4487 0.0000  plane waves:    1908
 k-point 37 :   0.0000 0.4615 0.0000  plane waves:    1904
 k-point 38 :   0.0000 0.4744 0.0000  plane waves:    1904
 k-point 39 :   0.0000 0.4872 0.0000  plane waves:    1888
 k-point 40 :   0.0000 0.5000 0.0000  plane waves:    1888
 k-point 41 :   0.0000 0.5000 0.0000  plane waves:    1888
 k-point 42 :   0.0128 0.5000 0.0000  plane waves:    1888
 k-point 43 :   0.0256 0.5000 0.0000  plane waves:    1896
 k-point 44 :   0.0385 0.5000 0.0000  plane waves:    1900
 k-point 45 :   0.0513 0.5000 0.0000  plane waves:    1900
 k-point 46 :   0.0641 0.5000 0.0000  plane waves:    1900
 k-point 47 :   0.0769 0.5000 0.0000  plane waves:    1900
 k-point 48 :   0.0897 0.5000 0.0000  plane waves:    1904
 k-point 49 :   0.1026 0.5000 0.0000  plane waves:    1898
 k-point 50 :   0.1154 0.5000 0.0000  plane waves:    1902
 k-point 51 :   0.1282 0.5000 0.0000  plane waves:    1902
 k-point 52 :   0.1410 0.5000 0.0000  plane waves:    1902
 k-point 53 :   0.1538 0.5000 0.0000  plane waves:    1894
 k-point 54 :   0.1667 0.5000 0.0000  plane waves:    1896
 k-point 55 :   0.1795 0.5000 0.0000  plane waves:    1896
 k-point 56 :   0.1923 0.5000 0.0000  plane waves:    1900
 k-point 57 :   0.2051 0.5000 0.0000  plane waves:    1896
 k-point 58 :   0.2179 0.5000 0.0000  plane waves:    1904
 k-point 59 :   0.2308 0.5000 0.0000  plane waves:    1910
 k-point 60 :   0.2436 0.5000 0.0000  plane waves:    1914
 k-point 61 :   0.2564 0.5000 0.0000  plane waves:    1914
 k-point 62 :   0.2692 0.5000 0.0000  plane waves:    1908
 k-point 63 :   0.2821 0.5000 0.0000  plane waves:    1896
 k-point 64 :   0.2949 0.5000 0.0000  plane waves:    1900
 k-point 65 :   0.3077 0.5000 0.0000  plane waves:    1900
 k-point 66 :   0.3205 0.5000 0.0000  plane waves:    1900
 k-point 67 :   0.3333 0.5000 0.0000  plane waves:    1896
 k-point 68 :   0.3462 0.5000 0.0000  plane waves:    1908
 k-point 69 :   0.3590 0.5000 0.0000  plane waves:    1908
 k-point 70 :   0.3718 0.5000 0.0000  plane waves:    1910
 k-point 71 :   0.3846 0.5000 0.0000  plane waves:    1914
 k-point 72 :   0.3974 0.5000 0.0000  plane waves:    1910
 k-point 73 :   0.4103 0.5000 0.0000  plane waves:    1910
 k-point 74 :   0.4231 0.5000 0.0000  plane waves:    1910
 k-point 75 :   0.4359 0.5000 0.0000  plane waves:    1918
 k-point 76 :   0.4487 0.5000 0.0000  plane waves:    1918
 k-point 77 :   0.4615 0.5000 0.0000  plane waves:    1926
 k-point 78 :   0.4744 0.5000 0.0000  plane waves:    1924
 k-point 79 :   0.4872 0.5000 0.0000  plane waves:    1924
 k-point 80 :   0.5000 0.5000 0.0000  plane waves:    1924
 k-point 81 :   0.5000 0.5000 0.0000  plane waves:    1924
 k-point 82 :   0.4872 0.4872 0.0000  plane waves:    1924
 k-point 83 :   0.4744 0.4744 0.0000  plane waves:    1928
 k-point 84 :   0.4615 0.4615 0.0000  plane waves:    1918
 k-point 85 :   0.4487 0.4487 0.0000  plane waves:    1912
 k-point 86 :   0.4359 0.4359 0.0000  plane waves:    1912
 k-point 87 :   0.4231 0.4231 0.0000  plane waves:    1913
 k-point 88 :   0.4103 0.4103 0.0000  plane waves:    1901
 k-point 89 :   0.3974 0.3974 0.0000  plane waves:    1901
 k-point 90 :   0.3846 0.3846 0.0000  plane waves:    1901
 k-point 91 :   0.3718 0.3718 0.0000  plane waves:    1897
 k-point 92 :   0.3590 0.3590 0.0000  plane waves:    1895
 k-point 93 :   0.3462 0.3462 0.0000  plane waves:    1899
 k-point 94 :   0.3333 0.3333 0.0000  plane waves:    1903
 k-point 95 :   0.3205 0.3205 0.0000  plane waves:    1899
 k-point 96 :   0.3077 0.3077 0.0000  plane waves:    1887
 k-point 97 :   0.2949 0.2949 0.0000  plane waves:    1891
 k-point 98 :   0.2821 0.2821 0.0000  plane waves:    1895
 k-point 99 :   0.2692 0.2692 0.0000  plane waves:    1897
 k-point ** :   0.2564 0.2564 0.0000  plane waves:    1893
 k-point ** :   0.2436 0.2436 0.0000  plane waves:    1895
 k-point ** :   0.2308 0.2308 0.0000  plane waves:    1901
 k-point ** :   0.2179 0.2179 0.0000  plane waves:    1897
 k-point ** :   0.2051 0.2051 0.0000  plane waves:    1893
 k-point ** :   0.1923 0.1923 0.0000  plane waves:    1897
 k-point ** :   0.1795 0.1795 0.0000  plane waves:    1901
 k-point ** :   0.1667 0.1667 0.0000  plane waves:    1893
 k-point ** :   0.1538 0.1538 0.0000  plane waves:    1897
 k-point ** :   0.1410 0.1410 0.0000  plane waves:    1893
 k-point ** :   0.1282 0.1282 0.0000  plane waves:    1889
 k-point ** :   0.1154 0.1154 0.0000  plane waves:    1893
 k-point ** :   0.1026 0.1026 0.0000  plane waves:    1897
 k-point ** :   0.0897 0.0897 0.0000  plane waves:    1895
 k-point ** :   0.0769 0.0769 0.0000  plane waves:    1895
 k-point ** :   0.0641 0.0641 0.0000  plane waves:    1899
 k-point ** :   0.0513 0.0513 0.0000  plane waves:    1899
 k-point ** :   0.0385 0.0385 0.0000  plane waves:    1901
 k-point ** :   0.0256 0.0256 0.0000  plane waves:    1901
 k-point ** :   0.0128 0.0128 0.0000  plane waves:    1901
 k-point ** :   0.0000 0.0000 0.0000  plane waves:    1935
 k-point ** :   0.0000 0.0000 0.0000  plane waves:    1935
 k-point ** :   0.0128 0.0128 0.0128  plane waves:    1899
 k-point ** :   0.0256 0.0256 0.0256  plane waves:    1899
 k-point ** :   0.0385 0.0385 0.0385  plane waves:    1899
 k-point ** :   0.0513 0.0513 0.0513  plane waves:    1893
 k-point ** :   0.0641 0.0641 0.0641  plane waves:    1893
 k-point ** :   0.0769 0.0769 0.0769  plane waves:    1899
 k-point ** :   0.0897 0.0897 0.0897  plane waves:    1896
 k-point ** :   0.1026 0.1026 0.1026  plane waves:    1899
 k-point ** :   0.1154 0.1154 0.1154  plane waves:    1899
 k-point ** :   0.1282 0.1282 0.1282  plane waves:    1899
 k-point ** :   0.1410 0.1410 0.1410  plane waves:    1893
 k-point ** :   0.1538 0.1538 0.1538  plane waves:    1905
 k-point ** :   0.1667 0.1667 0.1667  plane waves:    1905
 k-point ** :   0.1795 0.1795 0.1795  plane waves:    1905
 k-point ** :   0.1923 0.1923 0.1923  plane waves:    1893
 k-point ** :   0.2051 0.2051 0.2051  plane waves:    1893
 k-point ** :   0.2179 0.2179 0.2179  plane waves:    1899
 k-point ** :   0.2308 0.2308 0.2308  plane waves:    1899
 k-point ** :   0.2436 0.2436 0.2436  plane waves:    1899
 k-point ** :   0.2564 0.2564 0.2564  plane waves:    1902
 k-point ** :   0.2692 0.2692 0.2692  plane waves:    1902
 k-point ** :   0.2821 0.2821 0.2821  plane waves:    1902
 k-point ** :   0.2949 0.2949 0.2949  plane waves:    1902
 k-point ** :   0.3077 0.3077 0.3077  plane waves:    1899
 k-point ** :   0.3205 0.3205 0.3205  plane waves:    1890
 k-point ** :   0.3333 0.3333 0.3333  plane waves:    1896
 k-point ** :   0.3462 0.3462 0.3462  plane waves:    1884
 k-point ** :   0.3590 0.3590 0.3590  plane waves:    1893
 k-point ** :   0.3718 0.3718 0.3718  plane waves:    1896
 k-point ** :   0.3846 0.3846 0.3846  plane waves:    1884
 k-point ** :   0.3974 0.3974 0.3974  plane waves:    1884
 k-point ** :   0.4103 0.4103 0.4103  plane waves:    1896
 k-point ** :   0.4231 0.4231 0.4231  plane waves:    1890
 k-point ** :   0.4359 0.4359 0.4359  plane waves:    1880
 k-point ** :   0.4487 0.4487 0.4487  plane waves:    1880
 k-point ** :   0.4615 0.4615 0.4615  plane waves:    1880
 k-point ** :   0.4744 0.4744 0.4744  plane waves:    1880
 k-point ** :   0.4872 0.4872 0.4872  plane waves:    1904
 k-point ** :   0.5000 0.5000 0.5000  plane waves:    1904
 k-point ** :   0.5000 0.5000 0.5000  plane waves:    1904
 k-point ** :   0.4872 0.5000 0.4872  plane waves:    1904
 k-point ** :   0.4744 0.5000 0.4744  plane waves:    1888
 k-point ** :   0.4615 0.5000 0.4615  plane waves:    1888
 k-point ** :   0.4487 0.5000 0.4487  plane waves:    1888
 k-point ** :   0.4359 0.5000 0.4359  plane waves:    1888
 k-point ** :   0.4231 0.5000 0.4231  plane waves:    1884
 k-point ** :   0.4103 0.5000 0.4103  plane waves:    1890
 k-point ** :   0.3974 0.5000 0.3974  plane waves:    1900
 k-point ** :   0.3846 0.5000 0.3846  plane waves:    1892
 k-point ** :   0.3718 0.5000 0.3718  plane waves:    1888
 k-point ** :   0.3590 0.5000 0.3590  plane waves:    1876
 k-point ** :   0.3462 0.5000 0.3462  plane waves:    1888
 k-point ** :   0.3333 0.5000 0.3333  plane waves:    1880
 k-point ** :   0.3205 0.5000 0.3205  plane waves:    1890
 k-point ** :   0.3077 0.5000 0.3077  plane waves:    1898
 k-point ** :   0.2949 0.5000 0.2949  plane waves:    1898
 k-point ** :   0.2821 0.5000 0.2821  plane waves:    1890
 k-point ** :   0.2692 0.5000 0.2692  plane waves:    1894
 k-point ** :   0.2564 0.5000 0.2564  plane waves:    1894
 k-point ** :   0.2436 0.5000 0.2436  plane waves:    1894
 k-point ** :   0.2308 0.5000 0.2308  plane waves:    1898
 k-point ** :   0.2179 0.5000 0.2179  plane waves:    1910
 k-point ** :   0.2051 0.5000 0.2051  plane waves:    1904
 k-point ** :   0.1923 0.5000 0.1923  plane waves:    1904
 k-point ** :   0.1795 0.5000 0.1795  plane waves:    1904
 k-point ** :   0.1667 0.5000 0.1667  plane waves:    1918
 k-point ** :   0.1538 0.5000 0.1538  plane waves:    1904
 k-point ** :   0.1410 0.5000 0.1410  plane waves:    1904
 k-point ** :   0.1282 0.5000 0.1282  plane waves:    1906
 k-point ** :   0.1154 0.5000 0.1154  plane waves:    1906
 k-point ** :   0.1026 0.5000 0.1026  plane waves:    1904
 k-point ** :   0.0897 0.5000 0.0897  plane waves:    1912
 k-point ** :   0.0769 0.5000 0.0769  plane waves:    1908
 k-point ** :   0.0641 0.5000 0.0641  plane waves:    1908
 k-point ** :   0.0513 0.5000 0.0513  plane waves:    1904
 k-point ** :   0.0385 0.5000 0.0385  plane waves:    1896
 k-point ** :   0.0256 0.5000 0.0256  plane waves:    1904
 k-point ** :   0.0128 0.5000 0.0128  plane waves:    1892
 k-point ** :   0.0000 0.5000 0.0000  plane waves:    1888

 maximum and minimum number of plane-waves per node :      1935     1876

 maximum number of plane-waves:      1935
 maximum index in each direction: 
   IXMAX=    7   IYMAX=    7   IZMAX=    7
   IXMIN=   -8   IYMIN=   -8   IZMIN=   -8


 serial   3D FFT for wavefunctions
 parallel 3D FFT for charge:
    minimum data exchange during FFTs selected (reduces bandwidth)


 total amount of memory used by VASP MPI-rank0   280711. kBytes
=======================================================================

   base      :      30000. kBytes
   nonl-proj :     167425. kBytes
   fftplans  :       4177. kBytes
   grid      :       2386. kBytes
   one-center:         77. kBytes
   wavefun   :      76646. kBytes
 
     INWAV:  cpu time    0.5165: real time    0.5203
 initial charge density was supplied:
 number of electron      33.0000001 magnetization 
 keeping initial charge density in first step


--------------------------------------------------------------------------------------------------------


 Maximum index for augmentation-charges        28675 (set IRDMAX)


--------------------------------------------------------------------------------------------------------


 First call to EWALD:  gamma=   0.461
 Maximum number of real-space cells 3x 3x 3
 Maximum number of reciprocal cells 3x 3x 3

    FEWALD:  cpu time    0.0012: real time    0.0012


--------------------------------------- Iteration      1(   1)  ---------------------------------------


    POTLOK:  cpu time    0.0186: real time    0.0194
    SETDIJ:  cpu time    0.0446: real time    0.0446
    EDDIAG:  cpu time    1.1798: real time    1.2315
  RMM-DIIS:  cpu time    4.0960: real time    4.1391
    ORTHCH:  cpu time    0.1563: real time    0.1564
       DOS:  cpu time    0.0060: real time    0.0061
    --------------------------------------------
      LOOP:  cpu time    5.5014: real time    5.5972

 eigenvalue-minimisations  : 14843
 total energy-change (2. order) :-0.3901948E+02  (-0.1792517E-05)
 number of electron      33.0000001 magnetization 
 augmentation part       33.0000001 magnetization 

 Free energy of the ion-electron system (eV)
  ---------------------------------------------------
  alpha Z        PSCENC =       180.95685896
  Ewald energy   TEWEN  =     -2047.90029510
  -Hartree energ DENC   =      -423.63703842
  -exchange      EXHF   =         0.00000000
  -V(xc)+E(xc)   XCENC  =        77.78645293
  PAW double counting   =      3876.54817285    -3825.26112940
  entropy T*S    EENTRO =        -0.04228687
  eigenvalues    EBANDS =      -184.12289009
  atomic energy  EATOM  =      2306.65267270
  Solvation  Ediel_sol  =         0.00000000
  ---------------------------------------------------
  free energy    TOTEN  =       -39.01948245 eV

  energy without entropy =      -38.97719558  energy(sigma->0) =      -38.99833901


--------------------------------------------------------------------------------------------------------




--------------------------------------- Iteration      1(   2)  ---------------------------------------


    EDDIAG:  cpu time    1.2385: real time    1.2487
  RMM-DIIS:  cpu time    3.8448: real time    3.9115
    ORTHCH:  cpu time    0.1748: real time    0.1760
       DOS:  cpu time    0.0057: real time    0.0058
    --------------------------------------------
      LOOP:  cpu time    5.2637: real time    5.3420

 eigenvalue-minimisations  : 13778
 total energy-change (2. order) :-0.8033580E-06  (-0.5966918E-06)
 number of electron      33.0000001 magnetization 
 augmentation part       33.0000001 magnetization 

 Free energy of the ion-electron system (eV)
  ---------------------------------------------------
  alpha Z        PSCENC =       180.95685896
  Ewald energy   TEWEN  =     -2047.90029510
  -Hartree energ DENC   =      -423.63703842
  -exchange      EXHF   =         0.00000000
  -V(xc)+E(xc)   XCENC  =        77.78645293
  PAW double counting   =      3876.54817285    -3825.26112940
  entropy T*S    EENTRO =        -0.04228687
  eigenvalues    EBANDS =      -184.12289089
  atomic energy  EATOM  =      2306.65267270
  Solvation  Ediel_sol  =         0.00000000
  ---------------------------------------------------
  free energy    TOTEN  =       -39.01948325 eV

  energy without entropy =      -38.97719638  energy(sigma->0) =      -38.99833982


--------------------------------------------------------------------------------------------------------




 average (electrostatic) potential at core
  the test charge radii are     1.1929  1.2064  0.7215
  (the norm of the test charge is              1.0000)
       1 -34.8661       2 -42.7904       3 -71.6909       4 -71.6909       5 -71.6909
 
 
 
 E-fermi :   4.5692     XC(G=0): -11.7198     alpha+bet :-13.3782


 k-point     1 :       0.0000    0.0000    0.0000
  band No.  band energies     occupation 
      1     -29.0569      2.00000
      2     -14.3098      2.00000
      3     -13.0978      2.00000
      4     -13.0978      2.00000
      5     -11.0916      2.00000
      6     -11.0916      2.00000
      7     -11.0916      2.00000
      8       0.1628      2.00000
      9       0.1628      2.00000
     10       0.1628      2.00000
     11       2.1393      2.00000
     12       2.1393      2.00000
     13       2.1393      2.00000
     14       2.9857      2.00000
     15       2.9857      2.00000
     16       2.9857      2.00000
     17       4.3087      1.93460
     18       4.3087      1.93460
     19       4.3087      1.93460
     20       6.4873      0.00000
     21       6.4873      0.00000
     22       8.8273      0.00000
     23       8.8273      0.00000
     24       9.9190      0.00000
     25      11.8629      0.00000
     26      11.8629      0.00000
     27      11.8629      0.00000
     28      18.4671      0.00000
     29      20.8041      0.00000
     30      20.8041      0.00000
     31      20.8041      0.00000
     32      24.5557      0.00000
     33      24.5557      0.00000
     34      24.5557      0.00000
     35      25.0002      0.00000
     36      25.0002      0.00000
     37      25.4293      0.00000
     38      26.7445      0.00000
     39      26.7445      0.00000
     40      26.7445      0.00000
     41      30.4342      0.00000
     42      30.4342      0.00000
     43      30.4343      0.00000
     44      34.2923      0.00000
     45      34.3463      0.00000
     46      34.4702      0.00000
     47      34.4862      0.00000
     48      40.9680      0.00000

 k-point     2 :       0.0000    0.0128    0.0000
  band No.  band energies     occupation 
      1     -29.0569      2.00000
      2     -14.3097      2.00000
      3     -13.0983      2.00000
      4     -13.0977      2.00000
      5     -11.0915      2.00000
      6     -11.0915      2.00000
      7     -11.0903      2.00000
      8       0.1603      2.00000
      9       0.1627      2.00000
     10       0.1627      2.00000
     11       2.1363      2.00000
     12       2.1363      2.00000
     13       2.1376      2.00000
     14       2.9797      2.00000
     15       2.9840      2.00000
     16       2.9840      2.00000
     17       4.3089      1.93440
     18       4.3141      1.92884
     19       4.3141      1.92884
     20       6.4873      0.00000
     21       6.4938      0.00000
     22       8.8302      0.00000
     23       8.8306      0.00000
     24       9.9231      0.00000
     25      11.8626      0.00000
     26      11.8649      0.00000
     27      11.8649      0.00000
     28      18.4676      0.00000
     29      20.8034      0.00000
     30      20.8038      0.00000
     31      20.8038      0.00000
     32      24.5263      0.00000
     33      24.5525      0.00000
     34      24.5525      0.00000
     35      24.9851      0.00000
     36      24.9995      0.00000
     37      25.4618      0.00000
     38      26.7405      0.00000
     39      26.7451      0.00000
     40      26.7451      0.00000
     41      30.4304      0.00000
     42      30.4390      0.00000
     43      30.6508      0.00000
     44      34.3072      0.00000
     45      34.3359      0.00000
     46      34.4737      0.00000
     47      40.7201      0.00000
     48      54.3371      0.00000

 k-point     3 :       0.0000    0.0256    0.0000
  band No.  band energies     occupation 
      1     -29.0567      2.00000
      2     -14.3097      2.00000
      3     -13.0997      2.00000
      4     -13.0975      2.00000
      5     -11.0912      2.00000
      6     -11.0912      2.00000
      7     -11.0864      2.00000
      8       0.1529      2.00000
      9       0.1624      2.00000
     10       0.1624      2.00000
     11       2.1272      2.00000
     12       2.1272      2.00000
     13       2.1324      2.00000
     14       2.9603      2.00000
     15       2.9777      2.00000
     16       2.9777      2.00000
     17       4.3094      1.93380
     18       4.3300      1.90929
     19       4.3300      1.90929
     20       6.4875      0.00000
     21       6.5133      0.00000
     22       8.8390      0.00000
     23       8.8404      0.00000
     24       9.9354      0.00000
     25      11.8616      0.00000
     26      11.8710      0.00000
     27      11.8710      0.00000
     28      18.4691      0.00000
     29      20.8013      0.00000
     30      20.8026      0.00000
     31      20.8029      0.00000
     32      24.4487      0.00000
     33      24.5432      0.00000
     34      24.5432      0.00000
     35      24.9403      0.00000
     36      24.9973      0.00000
     37      25.5490      0.00000
     38      26.7288      0.00000
     39      26.7469      0.00000
     40      26.7469      0.00000
     41      30.4189      0.00000
     42      30.4474      0.00000
     43      30.4879      0.00000
     44      34.3022      0.00000
     45      34.3521      0.00000
     46      34.4381      0.00000
     47      34.5190      0.00000
     48      52.0685      0.00000

 k-point     4 :       0.0000    0.0385    0.0000
  band No.  band energies     occupation 
      1     -29.0565      2.00000
      2     -14.3097      2.00000
      3     -13.1020      2.00000
      4     -13.0971      2.00000
      5     -11.0907      2.00000
      6     -11.0907      2.00000
      7     -11.0800      2.00000
      8       0.1405      2.00000
      9       0.1618      2.00000
     10       0.1618      2.00000
     11       2.1121      2.00000
     12       2.1121      2.00000
     13       2.1238      2.00000
     14       2.9288      2.00000
     15       2.9677      2.00000
     16       2.9677      2.00000
     17       4.3104      1.93280
     18       4.3560      1.86847
     19       4.3560      1.86847
     20       6.4877      0.00000
     21       6.5452      0.00000
     22       8.8536      0.00000
     23       8.8568      0.00000
     24       9.9557      0.00000
     25      11.8599      0.00000
     26      11.8810      0.00000
     27      11.8810      0.00000
     28      18.4715      0.00000
     29      20.7976      0.00000
     30      20.8007      0.00000
     31      20.8009      0.00000
     32      24.3419      0.00000
     33      24.5277      0.00000
     34      24.5277      0.00000
     35      24.8672      0.00000
     36      24.9938      0.00000
     37      25.6718      0.00000
     38      26.7095      0.00000
     39      26.7499      0.00000
     40      26.7499      0.00000
     41      30.4000      0.00000
     42      30.4678      0.00000
     43      30.9688      0.00000
     44      34.1407      0.00000
     45      34.3311      0.00000
     46      34.4833      0.00000
     47      34.5075      0.00000
     48      34.5420      0.00000

 k-point     5 :       0.0000    0.0513    0.0000
  band No.  band energies     occupation 
      1     -29.0561      2.00000
      2     -14.3097      2.00000
      3     -13.1051      2.00000
      4     -13.0966      2.00000
      5     -11.0900      2.00000
      6     -11.0900      2.00000
      7     -11.0711      2.00000
      8       0.1234      2.00000
      9       0.1611      2.00000
     10       0.1611      2.00000
     11       2.0914      2.00000
     12       2.0914      2.00000
     13       2.1120      2.00000
     14       2.8858      2.00000
     15       2.9546      2.00000
     16       2.9546      2.00000
     17       4.3117      1.93138
     18       4.3911      1.79224
     19       4.3911      1.79224
     20       6.4880      0.00000
     21       6.5885      0.00000
     22       8.8740      0.00000
     23       8.8795      0.00000
     24       9.9842      0.00000
     25      11.8576      0.00000
     26      11.8950      0.00000
     27      11.8950      0.00000
     28      18.4746      0.00000
     29      20.7925      0.00000
     30      20.7981      0.00000
     31      20.7984      0.00000
     32      24.2199      0.00000
     33      24.5062      0.00000
     34      24.5062      0.00000
     35      24.7678      0.00000
     36      24.9884      0.00000
     37      25.8158      0.00000
     38      26.6828      0.00000
     39      26.7539      0.00000
     40      26.7539      0.00000
     41      30.3743      0.00000
     42      30.4727      0.00000
     43      30.8179      0.00000
     44      34.2174      0.00000
     45      34.3585      0.00000
     46      34.5028      0.00000
     47      34.5583      0.00000
     48      52.4155      0.00000

 k-point     6 :       0.0000    0.0641    0.0000
  band No.  band energies     occupation 
      1     -29.0557      2.00000
      2     -14.3097      2.00000
      3     -13.1088      2.00000
      4     -13.0959      2.00000
      5     -11.0891      2.00000
      6     -11.0891      2.00000
      7     -11.0599      2.00000
      8       0.1015      2.00000
      9       0.1602      2.00000
     10       0.1602      2.00000
     11       2.0652      2.00000
     12       2.0652      2.00000
     13       2.0970      2.00000
     14       2.8326      2.00000
     15       2.9391      2.00000
     16       2.9391      2.00000
     17       4.3134      1.92953
     18       4.4344      1.65980
     19       4.4344      1.65980
     20       6.4883      0.00000
     21       6.6421      0.00000
     22       8.9001      0.00000
     23       8.9084      0.00000
     24      10.0205      0.00000
     25      11.8547      0.00000
     26      11.9129      0.00000
     27      11.9129      0.00000
     28      18.4784      0.00000
     29      20.7858      0.00000
     30      20.7948      0.00000
     31      20.7948      0.00000
     32      24.0909      0.00000
     33      24.4789      0.00000
     34      24.4789      0.00000
     35      24.6449      0.00000
     36      24.9811      0.00000
     37      25.9732      0.00000
     38      26.6493      0.00000
     39      26.7588      0.00000
     40      26.7588      0.00000
     41      30.3423      0.00000
     42      30.3563      0.00000
     43      30.5403      0.00000
     44      33.9185      0.00000
     45      34.3642      0.00000
     46      34.4962      0.00000
     47      34.5814      0.00000
     48      40.7988      0.00000

 k-point     7 :       0.0000    0.0769    0.0000
  band No.  band energies     occupation 
[...]
     31      20.6705      0.00000
     32      20.9619      0.00000
     33      22.5195      0.00000
     34      23.1084      0.00000
     35      23.6746      0.00000
     36      24.7981      0.00000
     37      25.2370      0.00000
     38      25.2558      0.00000
     39      26.7097      0.00000
     40      27.3583      0.00000
     41      29.5294      0.00000
     42      30.2434      0.00000
     43      30.2192      0.00000
     44      31.5007      0.00000
     45      37.3283      0.00000
     46      38.9700      0.00000
     47      41.0374      0.00000
     48      46.3349      0.00000

 k-point   196 :       0.0513    0.5000    0.0513
  band No.  band energies     occupation 
      1     -29.0248      2.00000
      2     -14.4617      2.00000
      3     -13.0483      2.00000
      4     -13.0148      2.00000
      5     -11.0379      2.00000
      6     -10.9949      2.00000
      7     -10.4824      2.00000
      8      -1.3586      2.00000
      9       0.0960      2.00000
     10       0.1368      2.00000
     11       0.3424      2.00000
     12       0.6104      2.00000
     13       1.2190      2.00000
     14       1.4720      2.00000
     15       2.3578      2.00000
     16       2.4628      2.00000
     17       4.5638      1.03076
     18       6.2435      0.00000
     19       6.2510      0.00000
     20       6.6468      0.00000
     21       8.8598      0.00000
     22      10.9028      0.00000
     23      11.1214      0.00000
     24      11.7318      0.00000
     25      13.0391      0.00000
     26      13.0981      0.00000
     27      14.2463      0.00000
     28      15.5612      0.00000
     29      18.4060      0.00000
     30      20.4164      0.00000
     31      20.6659      0.00000
     32      21.1301      0.00000
     33      22.5683      0.00000
     34      23.0091      0.00000
     35      23.5862      0.00000
     36      25.0339      0.00000
     37      25.0745      0.00000
     38      25.3011      0.00000
     39      26.6741      0.00000
     40      27.1786      0.00000
     41      29.6021      0.00000
     42      29.9646      0.00000
     43      30.3185      0.00000
     44      31.6742      0.00000
     45      37.6933      0.00000
     46      38.8395      0.00000
     47      41.4363      0.00000
     48      46.9518      0.00000

 k-point   197 :       0.0385    0.5000    0.0385
  band No.  band energies     occupation 
      1     -29.0254      2.00000
      2     -14.4744      2.00000
      3     -13.0492      2.00000
      4     -13.0039      2.00000
      5     -11.0334      2.00000
      6     -11.0088      2.00000
      7     -10.4754      2.00000
      8      -1.3565      2.00000
      9       0.1129      2.00000
     10       0.1363      2.00000
     11       0.4535      2.00000
     12       0.6768      2.00000
     13       1.1144      2.00000
     14       1.3925      2.00000
     15       2.4316      2.00000
     16       2.4921      2.00000
     17       4.5084      1.33290
     18       6.2460      0.00000
     19       6.2504      0.00000
     20       6.5853      0.00000
     21       8.8292      0.00000
     22      10.8808      0.00000
     23      11.0881      0.00000
     24      11.6950      0.00000
     25      13.0872      0.00000
     26      13.1251      0.00000
     27      14.1702      0.00000
     28      15.5741      0.00000
     29      18.3993      0.00000
     30      20.5182      0.00000
     31      20.6617      0.00000
     32      21.2921      0.00000
     33      22.6133      0.00000
     34      22.9018      0.00000
     35      23.5095      0.00000
     36      24.9474      0.00000
     37      25.2581      0.00000
     38      25.3230      0.00000
     39      26.6552      0.00000
     40      26.9991      0.00000
     41      29.6608      0.00000
     42      30.0826      0.00000
     43      30.3598      0.00000
     44      31.8907      0.00000
     45      38.1533      0.00000
     46      38.6603      0.00000
     47      45.5142      0.00000
     48      47.5931      0.00000

 k-point   198 :       0.0256    0.5000    0.0256
  band No.  band energies     occupation 
      1     -29.0258      2.00000
      2     -14.4836      2.00000
      3     -13.0499      2.00000
      4     -12.9959      2.00000
      5     -11.0302      2.00000
      6     -11.0191      2.00000
      7     -10.4704      2.00000
      8      -1.3551      2.00000
      9       0.1251      2.00000
     10       0.1356      2.00000
     11       0.5652      2.00000
     12       0.7357      2.00000
     13       1.0075      2.00000
     14       1.3239      2.00000
     15       2.4868      2.00000
     16       2.5143      2.00000
     17       4.4664      1.53290
     18       6.2481      0.00000
     19       6.2501      0.00000
     20       6.5403      0.00000
     21       8.8069      0.00000
     22      10.8651      0.00000
     23      11.0624      0.00000
     24      11.6696      0.00000
     25      13.1258      0.00000
     26      13.1445      0.00000
     27      14.1112      0.00000
     28      15.5835      0.00000
     29      18.3943      0.00000
     30      20.5936      0.00000
     31      20.6585      0.00000
     32      21.4351      0.00000
     33      22.6509      0.00000
     34      22.7979      0.00000
     35      23.4487      0.00000
     36      24.8569      0.00000
     37      25.3300      0.00000
     38      25.4586      0.00000
     39      26.6476      0.00000
     40      26.8312      0.00000
     41      29.7039      0.00000
     42      30.4423      0.00000
     43      30.3555      0.00000
     44      32.1326      0.00000
     45      38.0291      0.00000
     46      38.8168      0.00000
     47      46.3083      0.00000
     48      48.2424      0.00000

 k-point   199 :       0.0128    0.5000    0.0128
  band No.  band energies     occupation 
      1     -29.0260      2.00000
      2     -14.4891      2.00000
      3     -13.0503      2.00000
      4     -12.9909      2.00000
      5     -11.0283      2.00000
      6     -11.0255      2.00000
      7     -10.4674      2.00000
      8      -1.3541      2.00000
      9       0.1325      2.00000
     10       0.1352      2.00000
     11       0.6769      2.00000
     12       0.7792      2.00000
     13       0.8989      2.00000
     14       1.2748      2.00000
     15       2.5212      2.00000
     16       2.5282      2.00000
     17       4.4401      1.63897
     18       6.2494      0.00000
     19       6.2499      0.00000
     20       6.5128      0.00000
     21       8.7933      0.00000
     22      10.8556      0.00000
     23      11.0463      0.00000
     24      11.6548      0.00000
     25      13.1512      0.00000
     26      13.1562      0.00000
     27      14.0733      0.00000
     28      15.5892      0.00000
     29      18.3912      0.00000
     30      20.6401      0.00000
     31      20.6565      0.00000
     32      21.5388      0.00000
     33      22.6766      0.00000
     34      22.7173      0.00000
     35      23.4089      0.00000
     36      24.8030      0.00000
     37      25.3306      0.00000
     38      25.6106      0.00000
     39      26.6456      0.00000
     40      26.6990      0.00000
     41      29.7301      0.00000
     42      30.4778      0.00000
     43      30.5798      0.00000
     44      32.3826      0.00000
     45      38.5827      0.00000
     46      39.0041      0.00000
     47      47.0052      0.00000
     48      48.9494      0.00000

 k-point   200 :       0.0000    0.5000    0.0000
  band No.  band energies     occupation 
      1     -29.0261      2.00000
      2     -14.4909      2.00000
      3     -13.0504      2.00000
      4     -12.9892      2.00000
      5     -11.0277      2.00000
      6     -11.0277      2.00000
      7     -10.4664      2.00000
      8      -1.3538      2.00000
      9       0.1350      2.00000
     10       0.1350      2.00000
     11       0.7811      2.00000
     12       0.7958      2.00000
     13       0.7958      2.00000
     14       1.2563      2.00000
     15       2.5329      2.00000
     16       2.5329      2.00000
     17       4.4311      1.67139
     18       6.2499      0.00000
     19       6.2499      0.00000
     20       6.5036      0.00000
     21       8.7888      0.00000
     22      10.8525      0.00000
     23      11.0408      0.00000
     24      11.6499      0.00000
     25      13.1601      0.00000
     26      13.1601      0.00000
     27      14.0603      0.00000
     28      15.5911      0.00000
     29      18.3902      0.00000
     30      20.6558      0.00000
     31      20.6559      0.00000
     32      21.5778      0.00000
     33      22.6859      0.00000
     34      22.6859      0.00000
     35      23.3949      0.00000
     36      24.7851      0.00000
     37      25.3302      0.00000
     38      25.6709      0.00000
     39      26.6454      0.00000
     40      26.6457      0.00000
     41      29.7390      0.00000
     42      30.4915      0.00000
     43      30.9244      0.00000
     44      32.6549      0.00000
     45      38.6621      0.00000
     46      39.2483      0.00000
     47      47.6760      0.00000
     48      49.6890      0.00000


--------------------------------------------------------------------------------------------------------


 soft charge-density along one line, spin component           1
         0         1         2         3         4         5         6         7         8         9
 total charge-density along one line
 
 pseudopotential strength for first ion, spin component:           1
-11.985  -2.442   0.000   0.000  -0.000   0.000   0.000  -0.000
 -2.442  -2.273   0.000   0.000  -0.000   0.000   0.000  -0.000
  0.000   0.000 -14.457  -0.000   0.000 -14.190  -0.000   0.000
  0.000   0.000  -0.000 -14.457  -0.000  -0.000 -14.190  -0.000
 -0.000  -0.000   0.000  -0.000 -14.457   0.000  -0.000 -14.190
  0.000   0.000 -14.190  -0.000   0.000 -13.926  -0.000   0.000
  0.000   0.000  -0.000 -14.190  -0.000  -0.000 -13.926  -0.000
 -0.000  -0.000   0.000  -0.000 -14.190   0.000  -0.000 -13.926
  0.000   0.000  -0.000  -0.000   0.000  -0.000  -0.000   0.000
 -0.000  -0.000   0.000   0.000  -0.000   0.000   0.000  -0.000
 -0.000  -0.000  -0.000   0.000   0.000  -0.000   0.000   0.000
 -0.000  -0.000  -0.000  -0.000   0.000  -0.000  -0.000   0.000
  0.000   0.000  -0.000   0.000  -0.000  -0.000   0.000  -0.000
  0.000   0.000  -0.000  -0.000   0.000  -0.000  -0.000   0.000
 -0.000  -0.000   0.000   0.000  -0.000   0.000   0.000  -0.000
 -0.000  -0.000  -0.000   0.000   0.000  -0.000   0.000   0.000
 -0.000  -0.000  -0.000  -0.000   0.000  -0.000  -0.000   0.000
  0.000   0.000  -0.000   0.000  -0.000  -0.000   0.000  -0.000
 total augmentation occupancy for first ion, spin component:           1
  2.000   0.000   0.000   0.000   0.000   0.000   0.000   0.000   0.000   0.000   0.000   0.000   0.000   0.000   0.000   0.000
  0.000   1.999   0.000   0.000   0.000   0.000   0.000   0.000   0.000   0.000   0.000   0.000   0.000   0.000   0.000   0.000
  0.000   0.000   2.000   0.000   0.000   0.000   0.000   0.000   0.000   0.000   0.000   0.000   0.000   0.000   0.000   0.000
  0.000   0.000   0.000   2.000   0.000   0.000   0.000   0.000   0.000   0.000   0.000   0.000   0.000   0.000   0.000   0.000
  0.000   0.000   0.000   0.000   2.000   0.000   0.000   0.000   0.000   0.000   0.000   0.000   0.000   0.000   0.000   0.000
  0.000   0.000   0.000   0.000   0.000   0.000   0.000   0.000   0.000   0.000   0.000   0.000   0.000   0.000   0.000   0.000
  0.000   0.000   0.000   0.000   0.000   0.000   0.000   0.000   0.000   0.000   0.000   0.000   0.000   0.000   0.000   0.000
  0.000   0.000   0.000   0.000   0.000   0.000   0.000   0.000   0.000   0.000   0.000   0.000   0.000   0.000   0.000   0.000
  0.000   0.000   0.000   0.000   0.000   0.000   0.000   0.000   0.000   0.000   0.000   0.000   0.000   0.000   0.000   0.000
  0.000   0.000   0.000   0.000   0.000   0.000   0.000   0.000   0.000   0.000   0.000   0.000   0.000   0.000   0.000   0.000
  0.000   0.000   0.000   0.000   0.000   0.000   0.000   0.000   0.000   0.000   0.000   0.000   0.000   0.000   0.000   0.000
  0.000   0.000   0.000   0.000   0.000   0.000   0.000   0.000   0.000   0.000   0.000   0.000   0.000   0.000   0.000   0.000
  0.000   0.000   0.000   0.000   0.000   0.000   0.000   0.000   0.000   0.000   0.000   0.000   0.000   0.000   0.000   0.000
  0.000   0.000   0.000   0.000   0.000   0.000   0.000   0.000   0.000   0.000   0.000   0.000   0.000   0.000   0.000   0.000
  0.000   0.000   0.000   0.000   0.000   0.000   0.000   0.000   0.000   0.000   0.000   0.000   0.000   0.000   0.000   0.000
  0.000   0.000   0.000   0.000   0.000   0.000   0.000   0.000   0.000   0.000   0.000   0.000   0.000   0.000   0.000   0.000
  0.000   0.000   0.000   0.000   0.000   0.000   0.000   0.000   0.000   0.000   0.000   0.000   0.000   0.000   0.000   0.000
  0.000   0.000   0.000   0.000   0.000   0.000   0.000   0.000   0.000   0.000   0.000   0.000   0.000   0.000   0.000   0.000


------------------------ aborting loop because EDIFF is reached ----------------------------------------


 


 total charge     
 
# of ion       s       p       d       tot
------------------------------------------
    1        1.996   5.829   0.191   8.016
    2        0.504   1.210   3.346   5.060
    3        1.530   3.746   0.000   5.275
    4        1.568   3.312   0.000   4.880
    5        1.547   3.556   0.000   5.104
--------------------------------------------------
tot          7.145  17.653   3.538  28.336
 
    CHARGE:  cpu time    0.1528: real time    0.1528
    FORLOC:  cpu time    0.0017: real time    0.0017
    FORNL :  cpu time    1.8150: real time    1.8289
    STRESS:  cpu time    4.4825: real time    4.5011
    FORCOR:  cpu time    0.0138: real time    0.0140
    FORHAR:  cpu time    0.0039: real time    0.0040
    OFIELD:  cpu time    0.0001: real time    0.0001

  FORCE on cell =-STRESS in cart. coord.  units (eV):
  Direction    XX          YY          ZZ          XY          YZ          ZX
  --------------------------------------------------------------------------------------
  Alpha Z   180.95686   180.95686   180.95686
  Ewald    -682.63392  -682.63392  -682.63392    -0.00000     0.00000     0.00000
  Hartree   144.72894   144.72894   144.72894    -0.00000    -0.00000    -0.00000
  E(xc)    -149.33615  -149.33615  -149.33615    -0.00000    -0.00000    -0.00000
  Local       7.23998     7.23998     7.23998    -0.00000     0.00000    -0.00000
  n-local  -109.90047  -112.24788  -107.68861    -0.29254    -0.14259    -0.28747
  augment    44.28555    44.28555    44.28555     0.00000     0.00000     0.00000
  Kinetic   572.72044   556.15766   575.79873    -1.23457    -0.66716    -1.39150
  Fock        0.00000     0.00000     0.00000     0.00000     0.00000     0.00000
  -------------------------------------------------------------------------------------
  Total       3.52121     3.52121     3.52121    -0.00000     0.00000    -0.00000
  in kB      99.12860    99.12860    99.12860    -0.00000     0.00000    -0.00000
  external pressure =       99.13 kB  Pullay stress =        0.00 kB


 VOLUME and BASIS-vectors are now :
 -----------------------------------------------------------------------------
  energy-cutoff  :      600.00
  volume of cell :       56.91
      direct lattice vectors                 reciprocal lattice vectors
     3.846520000  0.000000000  0.000000000     0.259975250  0.000000000  0.000000000
     0.000000000  3.846520000  0.000000000     0.000000000  0.259975250  0.000000000
     0.000000000  0.000000000  3.846520000     0.000000000  0.000000000  0.259975250

  length of vectors
     3.846520000  3.846520000  3.846520000     0.259975250  0.259975250  0.259975250


 FORCES acting on ions
    electron-ion (+dipol)            ewald-force                    non-local-force                 convergence-correction
 -----------------------------------------------------------------------------------------------
   -.411E-14 -.425E-14 -.677E-14   -.479E-14 -.313E-14 -.318E-14   0.000E+00 0.000E+00 0.000E+00   -.352E-14 0.227E-13 -.151E-13
   0.328E-13 -.842E-12 -.162E-12   -.289E-14 -.187E-14 0.208E-15   0.000E+00 0.000E+00 0.000E+00   -.341E-15 -.120E-13 -.247E-13
   0.160E-12 -.146E-11 -.140E-11   0.406E-14 -.102E-14 0.290E-15   0.000E+00 0.000E+00 0.000E+00   0.270E-13 -.230E-13 0.460E-13
   0.161E-12 -.980E-14 -.203E-11   0.190E-14 0.339E-14 0.147E-14   0.000E+00 0.000E+00 0.000E+00   -.139E-13 0.212E-13 -.349E-14
   -.949E-14 0.163E-12 0.156E-12   0.166E-14 0.231E-14 0.145E-14   0.000E+00 0.000E+00 0.000E+00   -.398E-14 -.402E-13 -.265E-13
 -----------------------------------------------------------------------------------------------
   0.341E-12 -.215E-11 -.345E-11   -.550E-16 -.318E-15 0.244E-15   0.000E+00 0.000E+00 0.000E+00   0.523E-14 -.313E-13 -.237E-13
 
 
 POSITION                                       TOTAL-FORCE (eV/Angst)
 -----------------------------------------------------------------------------------
      0.00000      0.00000      0.00000         0.000000      0.000000      0.000000
      1.92326      1.92326      1.92326         0.000000      0.000000      0.000000
      1.92326      1.92326      0.00000         0.000000      0.000000      0.000000
      1.92326      0.00000      1.92326         0.000000      0.000000      0.000000
      0.00000      1.92326      1.92326         0.000000      0.000000      0.000000
 -----------------------------------------------------------------------------------
    total drift:                                0.000000     -0.000000     -0.000000


--------------------------------------------------------------------------------------------------------



  FREE ENERGIE OF THE ION-ELECTRON SYSTEM (eV)
  ---------------------------------------------------
  free  energy   TOTEN  =       -39.01948325 eV

  energy  without entropy=      -38.97719638  energy(sigma->0) =      -38.99833982
 


--------------------------------------------------------------------------------------------------------


    VCADER:  cpu time    0.0004: real time    0.0004
    POTLOK:  cpu time    0.0399: real time    0.0399


--------------------------------------------------------------------------------------------------------


 writing wavefunctions
     LOOP+:  cpu time   17.9160: real time   18.1251
    4ORBIT:  cpu time    0.0000: real time    0.0000
 


 total charge     
 
# of ion       s       p       d       tot
------------------------------------------
    1        1.996   5.829   0.191   8.016
    2        0.504   1.210   3.346   5.060
    3        1.530   3.746   0.000   5.275
    4        1.568   3.312   0.000   4.880
    5        1.547   3.556   0.000   5.104
--------------------------------------------------
tot          7.145  17.653   3.538  28.336
 

 total amount of memory used by VASP MPI-rank0   280711. kBytes
=======================================================================

   base      :      30000. kBytes
   nonl-proj :     167425. kBytes
   fftplans  :       4177. kBytes
   grid      :       2386. kBytes
   one-center:         77. kBytes
   wavefun   :      76646. kBytes
 
  
  
 General timing and accounting informations for this job:
 ========================================================
  
                  Total CPU time used (sec):       20.283
                            User time (sec):       19.800
                          System time (sec):        0.484
                         Elapsed time (sec):       20.804
  
                   Maximum memory used (kb):      348432.
                   Average memory used (kb):           0.
  
                          Minor page faults:        69940
                          Major page faults:            0
                 Voluntary context switches:           59
